                         Program Version 5.0.1 -  RELEASE  -
|  1> ! wB97X D4 def2-TZVP defgrid2 OptTS Freq
|  2>
|  3> %scf
|  4>   MaxIter 500
|  5> end
|  6>
|  7> %pal
|  8>   nproc 24
|  9> end
| 10>
| 11> %maxcore 2000
| 12>
| 13> %geom
| 14>   Calc_Hess true
| 15>   Recalc_Hess 1
| 16> end
| 17>
| 18> %base "10025_2-TSOPT"
| 19>
| 20> *xyz 0 2
| 21> C    0.21570760   0.38432434  -1.00298645
| 22> C    1.99489260   0.70297556   0.57749622
| 23> C   -0.08307752  -1.00203671  -1.27387710
| 24> C    1.65435620   0.87370960  -0.86881131
| 25> C   -2.75820424   0.52664622  -0.45639291
| 26> C    2.32385839  -0.62688438   1.14539707
| 27> C   -1.59381494  -0.30253712   0.02183179
| 28> N   -1.52112617  -0.46307497   1.36238454
| 29> N   -1.20770908  -1.42035154  -0.76066876
| 30> H   -0.50524318   1.10645627  -1.35783398
| 31> H    1.56509056   1.42827021   1.25628033
| 32> H    0.54018777  -1.69168350  -1.84709303
| 33> H    1.72155991   1.92585572  -1.15524435
| 34> H    2.36095611   0.31788249  -1.50013529
| 35> H   -2.73627203   0.64794390  -1.53589855
| 36> H   -2.78484765   1.50459012   0.02461625
| 37> H   -3.67010242  -0.01515032  -0.20066144
| 38> H    2.98558706  -1.19191062   0.48470428
| 39> H    1.41111632  -1.22280502   1.26782143
| 40> H    2.81045013  -0.54704922   2.12129319
| 41> H   -0.98735797  -1.23300315   1.71752683
| 42> H   -1.73600745   0.29783212   1.98025125
| 43> *
| 44>
| 45>                          ****END OF INPUT****
 Total Charge           Charge          ....    0
 Multiplicity           Mult            ....    2
 Number of Electrons    NEL             ....   69
Dispersion correction           -0.003203856
FINAL SINGLE POINT ENERGY      -383.943695342196
Dispersion correction            ... Starting D4
Dispersion correction in the Hessian             ... Starting D4
Dispersion correction           -0.003196065
FINAL SINGLE POINT ENERGY      -383.949950625231
Dispersion correction            ... Starting D4
Dispersion correction in the Hessian             ... Starting D4
FINAL SINGLE POINT ENERGY      -383.952955915787
FINAL SINGLE POINT ENERGY      -383.954270415128
FINAL SINGLE POINT ENERGY      -383.954730744057
FINAL SINGLE POINT ENERGY      -383.954916255924
FINAL SINGLE POINT ENERGY      -383.955026916898
FINAL SINGLE POINT ENERGY      -383.955084967410
FINAL SINGLE POINT ENERGY      -383.955115224734
FINAL SINGLE POINT ENERGY      -383.955133646549
FINAL SINGLE POINT ENERGY      -383.955148528939
FINAL SINGLE POINT ENERGY      -383.955168327938
FINAL SINGLE POINT ENERGY      -383.955177859788
FINAL SINGLE POINT ENERGY      -383.955181834412
FINAL SINGLE POINT ENERGY      -383.955174891058
Dispersion correction in the Hessian             ... Starting D4
Dispersion correction           -0.003192980
FINAL SINGLE POINT ENERGY      -383.955178198311
Dispersion correction            ... Starting D4
Dispersion correction in the Hessian             ... Starting D4
                    ***********************HURRAY********************

CARTESIAN COORDINATES (ANGSTROEM)
---------------------------------
  C      0.148418    0.289496   -1.136422
  C      1.875702    0.713473    0.625911
  C     -0.183897   -1.066038   -1.349114
  C      1.553037    0.768964   -0.833959
  C     -2.849377    0.573575   -0.308490
  C      2.239030   -0.571354    1.276717
  C     -1.646928   -0.300614   -0.112363
  N     -1.306053   -0.504110    1.212200
  N     -1.422121   -1.334073   -1.006169
  H     -0.519627    0.999898   -1.607256
  H      1.856604    1.622856    1.214459
  H      0.479888   -1.834713   -1.756430
  H      1.694850    1.784413   -1.208794
  H      2.261979    0.127457   -1.380456
  H     -2.895383    0.934720   -1.334302
  H     -2.853624    1.420325    0.378975
  H     -3.737410   -0.034854   -0.118965
  H      3.316463   -0.775353    1.199989
  H      1.739922   -1.420205    0.794398
  H      1.992446   -0.585739    2.341029
  H     -0.538703   -1.144038    1.349428
  H     -1.205216    0.335914    1.759613

 Multiplicity           Mult            ....    2
 Number of Electrons    NEL             ....   69
 Basis Dimension        Dim             ....  357

ORBITAL ENERGIES
----------------
                 SPIN UP ORBITALS
  NO   OCC          E(Eh)            E(eV)
   0   1.0000     -14.405730      -391.9999
   1   1.0000     -14.362876      -390.8337
   2   1.0000     -10.357578      -281.8440
   3   1.0000     -10.287477      -279.9365
   4   1.0000     -10.259186      -279.1666
   5   1.0000     -10.257617      -279.1239
   6   1.0000     -10.255009      -279.0530
   7   1.0000     -10.253316      -279.0069
   8   1.0000     -10.238160      -278.5945
   9   1.0000      -1.103354       -30.0238
  10   1.0000      -1.017473       -27.6869
  11   1.0000      -0.932848       -25.3841
  12   1.0000      -0.878912       -23.9164
  13   1.0000      -0.857604       -23.3366
  14   1.0000      -0.787308       -21.4237
  15   1.0000      -0.732854       -19.9420
  16   1.0000      -0.690080       -18.7780
  17   1.0000      -0.667298       -18.1581
  18   1.0000      -0.639540       -17.4028
  19   1.0000      -0.591659       -16.0999
  20   1.0000      -0.579907       -15.7801
  21   1.0000      -0.558981       -15.2106
  22   1.0000      -0.547286       -14.8924
  23   1.0000      -0.536507       -14.5991
  24   1.0000      -0.521343       -14.1865
  25   1.0000      -0.511953       -13.9309
  26   1.0000      -0.505212       -13.7475
  27   1.0000      -0.486641       -13.2422
  28   1.0000      -0.461918       -12.5694
  29   1.0000      -0.455335       -12.3903
  30   1.0000      -0.439192       -11.9510
  31   1.0000      -0.402298       -10.9471
  32   1.0000      -0.364468        -9.9177
  33   1.0000      -0.285539        -7.7699
  34   1.0000      -0.268542        -7.3074
  35   0.0000       0.062639         1.7045
  36   0.0000       0.092264         2.5106
  37   0.0000       0.108513         2.9528
  38   0.0000       0.128440         3.4950
  39   0.0000       0.143107         3.8941

                 SPIN DOWN ORBITALS
  NO   OCC          E(Eh)            E(eV)
   0   1.0000     -14.405717      -391.9995
   1   1.0000     -14.362732      -390.8298
   2   1.0000     -10.357533      -281.8428
   3   1.0000     -10.287479      -279.9365
   4   1.0000     -10.257618      -279.1240
   5   1.0000     -10.255621      -279.0696
   6   1.0000     -10.253888      -279.0225
   7   1.0000     -10.250723      -278.9363
   8   1.0000     -10.237316      -278.5715
   9   1.0000      -1.103034       -30.0151
  10   1.0000      -1.017221       -27.6800
  11   1.0000      -0.917714       -24.9723
  12   1.0000      -0.878002       -23.8917
  13   1.0000      -0.852365       -23.1940
  14   1.0000      -0.783012       -21.3068
  15   1.0000      -0.729233       -19.8434
  16   1.0000      -0.671870       -18.2825
  17   1.0000      -0.664420       -18.0798
  18   1.0000      -0.638872       -17.3846
  19   1.0000      -0.589715       -16.0469
  20   1.0000      -0.577719       -15.7205
  21   1.0000      -0.551502       -15.0071
  22   1.0000      -0.540986       -14.7210
  23   1.0000      -0.527810       -14.3624
  24   1.0000      -0.516814       -14.0632
  25   1.0000      -0.508576       -13.8391
  26   1.0000      -0.502465       -13.6728
  27   1.0000      -0.483197       -13.1485
  28   1.0000      -0.458538       -12.4775
  29   1.0000      -0.449450       -12.2302
  30   1.0000      -0.437277       -11.8989
  31   1.0000      -0.401049       -10.9131
  32   1.0000      -0.361863        -9.8468
  33   1.0000      -0.269029        -7.3206
  34   0.0000       0.034689         0.9439
  35   0.0000       0.063309         1.7227
  36   0.0000       0.099366         2.7039
  37   0.0000       0.107618         2.9284
  38   0.0000       0.128604         3.4995

MULLIKEN ATOMIC CHARGES AND SPIN POPULATIONS
--------------------------------------------
   0 C :   -0.185767    0.023499
   1 C :   -0.185337    0.925117
   2 C :   -0.089901    0.006357
   3 C :   -0.177234   -0.034651
   4 C :   -0.343152    0.000898
   5 C :   -0.388310   -0.034371
   6 C :    0.224674    0.004239
   7 N :   -0.400557   -0.001601
   8 N :   -0.272836    0.009305
   9 H :    0.134172    0.001077
  10 H :    0.141050   -0.018945
  11 H :    0.109648   -0.000249
  12 H :    0.105412    0.005856
  13 H :    0.116753    0.026940
  14 H :    0.125208    0.000018
  15 H :    0.105143   -0.000165
  16 H :    0.144706   -0.000227
  17 H :    0.134281    0.054810
  18 H :    0.113859    0.017422
  19 H :    0.125211    0.011980
  20 H :    0.230757    0.000454
  21 H :    0.232219    0.002238
Sum of atomic charges         :    0.0000000

LOEWDIN ATOMIC CHARGES AND SPIN POPULATIONS
-------------------------------------------
   0 C :   -0.224767    0.031505
   1 C :   -0.171542    0.751801
   2 C :   -0.251528    0.002778
   3 C :   -0.286263    0.059153
   4 C :   -0.260276    0.000316
   5 C :   -0.334300    0.063172
   6 C :   -0.312254    0.004215
   7 N :   -0.014405    0.000258
   8 N :    0.080813    0.007650
   9 H :    0.149339    0.000472
  10 H :    0.119734    0.003990
  11 H :    0.123134   -0.000162
  12 H :    0.138700    0.002762
  13 H :    0.146374    0.015890
  14 H :    0.129402    0.000060
  15 H :    0.123870   -0.000034
  16 H :    0.141168   -0.000054
  17 H :    0.130234    0.036372
  18 H :    0.121689    0.011286
  19 H :    0.122524    0.006841
  20 H :    0.164875    0.000093
  21 H :    0.163479    0.001636

  Mayer bond orders larger than 0.100000
B(  0-C ,  2-C ) :   1.2895 B(  0-C ,  3-C ) :   0.9140 B(  0-C ,  6-C ) :   0.5617
B(  0-C ,  9-H ) :   0.9556 B(  1-C ,  3-C ) :   0.9606 B(  1-C ,  5-C ) :   0.9793
B(  1-C , 10-H ) :   0.9776 B(  2-C ,  6-C ) :   0.1226 B(  2-C ,  8-N ) :   1.6391
B(  2-C , 11-H ) :   0.9694 B(  3-C , 12-H ) :   0.9855 B(  3-C , 13-H ) :   0.9945
B(  4-C ,  6-C ) :   0.9403 B(  4-C , 14-H ) :   0.9857 B(  4-C , 15-H ) :   0.9709
B(  4-C , 16-H ) :   0.9574 B(  5-C , 17-H ) :   0.9557 B(  5-C , 18-H ) :   0.9784
B(  5-C , 19-H ) :   0.9814 B(  6-C ,  7-N ) :   1.1402 B(  6-C ,  8-N ) :   1.2803
B(  7-N , 20-H ) :   0.9269 B(  7-N , 21-H ) :   0.9229

Dispersion correction           -0.003193391
FINAL SINGLE POINT ENERGY      -383.955176814466

DIPOLE MOMENT
-------------
                                X             Y             Z
Electronic contribution:     -3.32953      -2.43969      -2.53880
Nuclear contribution   :      3.71790       3.22478       3.24243
                        -----------------------------------------
Total Dipole Moment    :      0.38836       0.78510       0.70362
                        -----------------------------------------
Magnitude (a.u.)       :      1.12352
Magnitude (Debye)      :      2.85575

Dispersion correction in the Hessian             ... Starting D4

VIBRATIONAL FREQUENCIES
-----------------------

Scaling factor for frequencies =  1.000000000  (already applied!)

   0:         0.00 cm**-1
   1:         0.00 cm**-1
   2:         0.00 cm**-1
   3:         0.00 cm**-1
   4:         0.00 cm**-1
   5:         0.00 cm**-1
   6:      -700.62 cm**-1 ***imaginary mode***
   7:        43.76 cm**-1
   8:        87.33 cm**-1
   9:       122.81 cm**-1
  10:       142.35 cm**-1
  11:       155.51 cm**-1
  12:       178.62 cm**-1
  13:       219.90 cm**-1
  14:       287.89 cm**-1
  15:       346.33 cm**-1
  16:       360.78 cm**-1
  17:       364.47 cm**-1
  18:       409.82 cm**-1
  19:       451.87 cm**-1
  20:       504.60 cm**-1
  21:       594.15 cm**-1
  22:       645.40 cm**-1
  23:       679.41 cm**-1
  24:       753.40 cm**-1
  25:       850.09 cm**-1
  26:       858.57 cm**-1
  27:       910.92 cm**-1
  28:       985.03 cm**-1
  29:       993.08 cm**-1
  30:      1013.00 cm**-1
  31:      1032.19 cm**-1
  32:      1057.45 cm**-1
  33:      1091.93 cm**-1
  34:      1108.09 cm**-1
  35:      1155.40 cm**-1
  36:      1216.31 cm**-1
  37:      1251.28 cm**-1
  38:      1296.08 cm**-1
  39:      1328.35 cm**-1
  40:      1354.43 cm**-1
  41:      1385.36 cm**-1
  42:      1399.70 cm**-1
  43:      1420.21 cm**-1
  44:      1422.43 cm**-1
  45:      1438.69 cm**-1
  46:      1469.00 cm**-1
  47:      1476.58 cm**-1
  48:      1483.45 cm**-1
  49:      1493.64 cm**-1
  50:      1495.86 cm**-1
  51:      1596.08 cm**-1
  52:      1650.63 cm**-1
  53:      2991.89 cm**-1
  54:      3006.51 cm**-1
  55:      3061.49 cm**-1
  56:      3073.14 cm**-1
  57:      3097.69 cm**-1
  58:      3110.28 cm**-1
  59:      3118.89 cm**-1
  60:      3152.09 cm**-1
  61:      3177.77 cm**-1
  62:      3207.90 cm**-1
  63:      3210.66 cm**-1
  64:      3586.95 cm**-1
  65:      3686.99 cm**-1

IR SPECTRUM
-----------

 Mode   freq       eps      Int      T**2         TX        TY        TZ
       cm**-1   L/(mol*cm) km/mol    a.u.
----------------------------------------------------------------------------
  7:     43.76   0.000291    1.47  0.002073  (-0.033045  0.026791 -0.016214)
  8:     87.33   0.000060    0.30  0.000214  ( 0.003352  0.013272 -0.005133)
  9:    122.81   0.001340    6.77  0.003406  ( 0.049267  0.025738 -0.017774)
 10:    142.35   0.000380    1.92  0.000832  (-0.009672  0.004394  0.026824)
 11:    155.51   0.000026    0.13  0.000053  (-0.003566 -0.003890  0.005031)
 12:    178.62   0.000469    2.37  0.000819  (-0.010441 -0.005106  0.026147)
 13:    219.90   0.006274   31.71  0.008904  (-0.088711 -0.015573  0.028138)
 14:    287.89   0.001515    7.66  0.001642  (-0.001149 -0.025736 -0.031283)
 15:    346.33   0.003048   15.40  0.002747  ( 0.033688 -0.024914 -0.031482)
 16:    360.78   0.002378   12.02  0.002057  (-0.045201 -0.003724 -0.000194)
 17:    364.47   0.002736   13.82  0.002342  ( 0.023624 -0.013578 -0.039998)
 18:    409.82   0.002389   12.07  0.001819  ( 0.020029 -0.037419  0.004179)
 19:    451.87   0.000535    2.70  0.000369  (-0.008694 -0.015814  0.006617)
 20:    504.60   0.012175   61.53  0.007529  (-0.076682 -0.003648  0.040446)
 21:    594.15   0.007957   40.21  0.004179  (-0.000867  0.020301 -0.061369)
 22:    645.40   0.025481  128.77  0.012321  (-0.064408 -0.004549  0.090285)
 23:    679.41   0.000918    4.64  0.000422  ( 0.015193  0.012557  0.005767)
 24:    753.40   0.034873  176.23  0.014445  ( 0.075841  0.059363 -0.071894)
 25:    850.09   0.004165   21.05  0.001529  ( 0.037323  0.010399  0.005263)
 26:    858.57   0.006491   32.80  0.002359  (-0.032502 -0.035425 -0.006936)
 27:    910.92   0.000431    2.18  0.000148  (-0.005067 -0.003905 -0.010332)
 28:    985.03   0.000389    1.96  0.000123  ( 0.005352 -0.006002  0.007644)
 29:    993.08   0.003777   19.09  0.001187  (-0.020352  0.010449  0.025760)
 30:   1013.00   0.006602   33.36  0.002034  (-0.043974 -0.005157  0.008563)
 31:   1032.19   0.003550   17.94  0.001073  ( 0.031724 -0.006670 -0.004730)
 32:   1057.45   0.003533   17.86  0.001043  ( 0.028120  0.010064 -0.012275)
 33:   1091.93   0.002488   12.57  0.000711  (-0.003282  0.025367  0.007529)
 34:   1108.09   0.001314    6.64  0.000370  (-0.009409 -0.016739  0.001198)
 35:   1155.40   0.000709    3.58  0.000191  (-0.009194 -0.009582  0.003888)
 36:   1216.31   0.002758   13.94  0.000708  (-0.023352 -0.012528  0.002336)
 37:   1251.28   0.005879   29.71  0.001466  (-0.031582 -0.020895 -0.005669)
 38:   1296.08   0.000477    2.41  0.000115  (-0.000160  0.002904  0.010316)
 39:   1328.35   0.000270    1.37  0.000063  (-0.003189  0.003703 -0.006293)
 40:   1354.43   0.007091   35.84  0.001634  ( 0.012729 -0.009757  0.037103)
 41:   1385.36   0.000381    1.92  0.000086  ( 0.008221  0.004127  0.001048)
 42:   1399.70   0.018271   92.33  0.004074  ( 0.019205 -0.005108 -0.060652)
 43:   1420.21   0.010954   55.36  0.002407  ( 0.041047 -0.026725  0.002812)
 44:   1422.43   0.005511   27.85  0.001209  ( 0.031751 -0.009625 -0.010410)
 45:   1438.69   0.000414    2.09  0.000090  ( 0.002406 -0.006589  0.006377)
 46:   1469.00   0.001140    5.76  0.000242  (-0.007721  0.001116  0.013469)
 47:   1476.58   0.002683   13.56  0.000567  (-0.019628  0.012948  0.003746)
 48:   1483.45   0.001278    6.46  0.000269  (-0.015565 -0.004007 -0.003234)
 49:   1493.64   0.000907    4.58  0.000189  ( 0.000291  0.008888  0.010507)
 50:   1495.86   0.002659   13.44  0.000555  ( 0.014134  0.015851 -0.010184)
 51:   1596.08   0.009718   49.11  0.001900  ( 0.029424  0.032136 -0.001225)
 52:   1650.63   0.012336   62.34  0.002332  ( 0.025209  0.001471  0.041164)
 53:   2991.89   0.008485   42.88  0.000885  (-0.022969  0.000748  0.018892)
 54:   3006.51   0.006279   31.73  0.000652  ( 0.018792 -0.016526  0.005052)
 55:   3061.49   0.004529   22.89  0.000462  ( 0.017458  0.012507  0.000682)
 56:   3073.14   0.002296   11.61  0.000233  ( 0.012814 -0.006737 -0.004858)
 57:   3097.69   0.011140   56.30  0.001122  (-0.021019  0.021788  0.014343)
 58:   3110.28   0.005093   25.74  0.000511  ( 0.006282  0.019961 -0.008551)
 59:   3118.89   0.003938   19.90  0.000394  (-0.000971 -0.002787 -0.019628)
 60:   3152.09   0.001431    7.23  0.000142  (-0.003459 -0.011292 -0.001474)
 61:   3177.77   0.001863    9.42  0.000183  (-0.000511  0.000665  0.013502)
 62:   3207.90   0.004246   21.46  0.000413  ( 0.006795  0.014893  0.012045)
 63:   3210.66   0.001058    5.35  0.000103  ( 0.004316 -0.008427  0.003633)
 64:   3586.95   0.003674   18.56  0.000320  ( 0.004742  0.000816  0.017218)
 65:   3686.99   0.003072   15.52  0.000260  ( 0.005990 -0.014610 -0.003263)

--------------------------
THERMOCHEMISTRY AT 298.15K
--------------------------

Temperature         ... 298.15 K
Pressure            ... 1.00 atm
Total Mass          ... 125.19 AMU

Throughout the following assumptions are being made:
  (1) The electronic state is orbitally nondegenerate
      but the spin degeneracy is treated
  (2) There are no thermally accessible electronically excited states
  (3) Hindered rotations indicated by low frequency modes are not
      treated as such but are treated as vibrations and this may
      cause some error
  (4) All equations used are the standard statistical mechanics
      equations for an ideal gas
  (5) All vibrations are strictly harmonic

freq.      43.76  E(vib)   ...       0.53
freq.      87.33  E(vib)   ...       0.48
freq.     122.81  E(vib)   ...       0.43
freq.     142.35  E(vib)   ...       0.41
freq.     155.51  E(vib)   ...       0.40
freq.     178.62  E(vib)   ...       0.37
freq.     219.90  E(vib)   ...       0.33
freq.     287.89  E(vib)   ...       0.27
freq.     346.33  E(vib)   ...       0.23
freq.     360.78  E(vib)   ...       0.22
freq.     364.47  E(vib)   ...       0.22
freq.     409.82  E(vib)   ...       0.19
freq.     451.87  E(vib)   ...       0.16
freq.     504.60  E(vib)   ...       0.14
freq.     594.15  E(vib)   ...       0.10
freq.     645.40  E(vib)   ...       0.09
freq.     679.41  E(vib)   ...       0.08
freq.     753.40  E(vib)   ...       0.06
freq.     850.09  E(vib)   ...       0.04
freq.     858.57  E(vib)   ...       0.04
freq.     910.92  E(vib)   ...       0.03
freq.     985.03  E(vib)   ...       0.02
freq.     993.08  E(vib)   ...       0.02
freq.    1013.00  E(vib)   ...       0.02
freq.    1032.19  E(vib)   ...       0.02
freq.    1057.45  E(vib)   ...       0.02
freq.    1091.93  E(vib)   ...       0.02
freq.    1108.09  E(vib)   ...       0.02
freq.    1155.40  E(vib)   ...       0.01
freq.    1216.31  E(vib)   ...       0.01
freq.    1251.28  E(vib)   ...       0.01
freq.    1296.08  E(vib)   ...       0.01
freq.    1328.35  E(vib)   ...       0.01
freq.    1354.43  E(vib)   ...       0.01
freq.    1385.36  E(vib)   ...       0.00
freq.    1399.70  E(vib)   ...       0.00
freq.    1420.21  E(vib)   ...       0.00
freq.    1422.43  E(vib)   ...       0.00
freq.    1438.69  E(vib)   ...       0.00
freq.    1469.00  E(vib)   ...       0.00
freq.    1476.58  E(vib)   ...       0.00
freq.    1483.45  E(vib)   ...       0.00
freq.    1493.64  E(vib)   ...       0.00
freq.    1495.86  E(vib)   ...       0.00
freq.    1596.08  E(vib)   ...       0.00
freq.    1650.63  E(vib)   ...       0.00
freq.    2991.89  E(vib)   ...       0.00
freq.    3006.51  E(vib)   ...       0.00
freq.    3061.49  E(vib)   ...       0.00
freq.    3073.14  E(vib)   ...       0.00
freq.    3097.69  E(vib)   ...       0.00
freq.    3110.28  E(vib)   ...       0.00
freq.    3118.89  E(vib)   ...       0.00
freq.    3152.09  E(vib)   ...       0.00
freq.    3177.77  E(vib)   ...       0.00
freq.    3207.90  E(vib)   ...       0.00
freq.    3210.66  E(vib)   ...       0.00
freq.    3586.95  E(vib)   ...       0.00
freq.    3686.99  E(vib)   ...       0.00

------------
INNER ENERGY
------------

The inner energy is: U= E(el) + E(ZPE) + E(vib) + E(rot) + E(trans)
    E(el)   - is the total energy from the electronic structure calculation
              = E(kin-el) + E(nuc-el) + E(el-el) + E(nuc-nuc)
    E(ZPE)  - the the zero temperature vibrational energy from the frequency calculation
    E(vib)  - the the finite temperature correction to E(ZPE) due to population
              of excited vibrational states
    E(rot)  - is the rotational thermal energy
    E(trans)- is the translational thermal energy

Summary of contributions to the inner energy U:
Electronic energy                ...   -383.95517681 Eh
Zero point energy                ...      0.18923480 Eh     118.75 kcal/mol
Thermal vibrational correction   ...      0.00805908 Eh       5.06 kcal/mol
Thermal rotational correction    ...      0.00141627 Eh       0.89 kcal/mol
Thermal translational correction ...      0.00141627 Eh       0.89 kcal/mol
-----------------------------------------------------------------------
Total thermal energy                   -383.75505039 Eh

Summary of corrections to the electronic energy:
(perhaps to be used in another calculation)
Total thermal correction                  0.01089162 Eh       6.83 kcal/mol
Non-thermal (ZPE) correction              0.18923480 Eh     118.75 kcal/mol
-----------------------------------------------------------------------
Total correction                          0.20012643 Eh     125.58 kcal/mol

--------
ENTHALPY
--------

The enthalpy is H = U + kB*T
                kB is Boltzmann's constant
Total free energy                 ...   -383.75505039 Eh
Thermal Enthalpy correction       ...      0.00094421 Eh       0.59 kcal/mol
-----------------------------------------------------------------------
Total Enthalpy                    ...   -383.75410618 Eh

Note: Only C1 symmetry has been detected, increase convergence thresholds
      if your molecule has a higher symmetry. Symmetry factor of 1.0 is
      used for the rotational entropy correction.

Note: Rotational entropy computed according to Herzberg
Infrared and Raman Spectra, Chapter V,1, Van Nostrand Reinhold, 1945
Point Group:  C1, Symmetry Number:   1
Rotational constants in cm-1:     0.085788     0.036476     0.033421

Vibrational entropy computed according to the QRRHO of S. Grimme
Chem.Eur.J. 2012 18 9955

-------
ENTROPY
-------

The entropy contributions are T*S = T*(S(el)+S(vib)+S(rot)+S(trans))
     S(el)   - electronic entropy
     S(vib)  - vibrational entropy
     S(rot)  - rotational entropy
     S(trans)- translational entropy
The entropies will be listed as multiplied by the temperature to get
units of energy

Electronic entropy                ...      0.00065446 Eh      0.41 kcal/mol
Vibrational entropy               ...      0.01406300 Eh      8.82 kcal/mol
Rotational entropy                ...      0.01383778 Eh      8.68 kcal/mol
Translational entropy             ...      0.01918948 Eh     12.04 kcal/mol
-----------------------------------------------------------------------
Final entropy term                ...      0.04774472 Eh     29.96 kcal/mol

In case the symmetry of your molecule has not been determined correctly
or in case you have a reason to use a different symmetry number we print
out the resulting rotational entropy values for sn=1,12 :
 --------------------------------------------------------
|  sn= 1 | S(rot)=       0.01383778 Eh      8.68 kcal/mol|
|  sn= 2 | S(rot)=       0.01318332 Eh      8.27 kcal/mol|
|  sn= 3 | S(rot)=       0.01280049 Eh      8.03 kcal/mol|

                             ****ORCA TERMINATED NORMALLY****
TOTAL RUN TIME: 0 days 1 hours 23 minutes 7 seconds 407 msec
