   * xtb version 6.5.1 (fef0646) compiled by 'conda@b96dff2e9fd6' on 2023-01-04
          program call               : xtb /scratch/negishi/li1724/Test-4-5-just-xtbrun/xtb_run/641656_2_init.xyz --iterations 300 --chrg -1 --uhf 0 --namespace 641656_2_opt --gfn 2 --opt --parallel 1 --input /scratch/negishi/li1724/Test-4-5-just-xtbrun/xtb_run/641656_2_opt.xcontrol

   ID    Z sym.   atoms
    1   35 Br     1
    2    6 C      2-42
    3   29 Cu     43
    4    1 H      44-74
    5    7 N      75, 76
    6    8 O      77
constraining bond 43 38 to    2.0590000 Å, actual value:    1.9494435 Å
constraining bond 43 75 to    2.0020000 Å, actual value:    1.9059894 Å
constraining bond 43 76 to    2.0020000 Å, actual value:    1.8625529 Å
constraining bond 32 43 to    2.7500000 Å, actual value:    2.7584236 Å
constraining bond 37 43 to    2.7500000 Å, actual value:    2.8010172 Å
constraining bond 43 1 to    3.5000000 Å, actual value:    3.2074305 Å
constraining bond 43 22 to    3.5000000 Å, actual value:    5.0215325 Å

          :  Hamiltonian                  GFN2-xTB          :
 * total energy  :  -117.2665770 Eh     change       -0.8581935E-09 Eh
 * total energy  :  -119.3434271 Eh     change       -0.2076850E+01 Eh
 * total energy  :  -120.0528933 Eh     change       -0.7094662E+00 Eh
 * total energy  :  -120.7090921 Eh     change       -0.6561988E+00 Eh
 * total energy  :  -121.1677835 Eh     change       -0.4586914E+00 Eh
 * total energy  :  -121.3131339 Eh     change       -0.1453504E+00 Eh
 * total energy  :  -121.3651281 Eh     change       -0.5199423E-01 Eh
 * total energy  :  -121.4019061 Eh     change       -0.3677800E-01 Eh
 * total energy  :  -121.4345706 Eh     change       -0.3266445E-01 Eh
 * total energy  :  -121.4629187 Eh     change       -0.2834816E-01 Eh
 * total energy  :  -121.7624306 Eh     change       -0.1879330E-04 Eh
 * total energy  :  -121.7624534 Eh     change       -0.2278180E-04 Eh
 * total energy  :  -121.7624734 Eh     change       -0.2005447E-04 Eh
 * total energy  :  -121.7624882 Eh     change       -0.1473825E-04 Eh
 * total energy  :  -121.7624996 Eh     change       -0.1140798E-04 Eh
 * total energy  :  -121.7625093 Eh     change       -0.9746102E-05 Eh
 * total energy  :  -121.7625173 Eh     change       -0.8022784E-05 Eh
 * total energy  :  -121.7625230 Eh     change       -0.5658261E-05 Eh
 * total energy  :  -121.7625269 Eh     change       -0.3915764E-05 Eh
   *** GEOMETRY OPTIMIZATION CONVERGED AFTER 142 ITERATIONS ***

 final structure:
================
77
 xtb: 6.5.1 (fef0646)
Br           5.35965864053875        3.90721570426239       -1.31623896248903
C            0.77817967588139        4.45485908130338       -3.23547327275389
C           -1.49313703736737        4.89810546474842       -4.00704374309706
C            2.04728439202383       -1.44180599452288       -3.23151835958803
C            1.35533002797843        0.84994216010984       -2.95726549138153
C           -1.56632992247129        3.60800382589267       -4.46474548173812
C            0.14218750119068        0.38225559112617       -2.45572879658668
C            0.62117390466527        3.05442175707651       -3.55140157947103
C            0.80024341687022       -1.88013521327155       -2.82531362110607
C            1.99240193076386        4.95977941851519       -2.75179964713074
C           -0.29765826362771        5.36074009251245       -3.42555339886380
C            2.39915590600950       -0.09024084730748       -3.20320781818448
C           -0.52941037090904        2.68657974708328       -4.28719217648749
C           -0.13222271815195       -0.96881870145883       -2.36412639288459
C            4.94147753167841       -2.43566680301580        1.25990746957566
C            5.67847780263412        0.10225904894341        0.26738162640112
C            4.35461711463727       -0.31139844976603        0.37116489984854
C            2.14656462801573        6.27657524836333       -2.40496871556122
C           -0.12156938995613        6.70806205455393       -3.04829576937643
C            5.97381550721725        1.35019161393102       -0.25258497060419
C            3.33244512874908        0.53610410209641       -0.05983066599494
C            4.94701019239548        2.17870119462854       -0.65328090872416
C            3.62296164421220        1.78202362895514       -0.57101436522576
C           -1.82204165501981        0.65630721843556       -4.95587851131318
C           -0.63509315623428        1.38656952047862       -4.95969531019355
C            1.06606119302856        7.15606624808424       -2.53667194115014
C            4.81917129793600       -0.22540142085361       -3.28158312281570
C            4.95699016558594       -1.41493700578358       -2.52218060659247
C            7.14961345821344        3.89709520127467       -4.40666116495444
C            7.10584839409793        2.59751830455467       -3.93408265982666
C            6.15700927762914        4.36923203302471       -5.25286287497014
C            6.08551529958318        1.71859208852083       -4.29215019983329
C            6.04526633463699        0.37058116258949       -3.73206720227303
C           -1.91648857035770       -0.54869738112967       -5.62517356695445
C            6.15955581658124       -2.05415742802369       -2.36380160127809
C            0.44756746003926        0.87728511430202       -5.67919563469065
C            5.13851395120330        3.52540738346596       -5.64615030497131
C            5.04002065011830        2.21336374501931       -5.12836527465220
C            7.24867379683389       -0.30284971229844       -3.54445975454682
C            7.32438878141569       -1.52346996682688       -2.90678805660095
C           -0.82853995297590       -1.04958759676121       -6.31807819272788
C            0.35340898461803       -0.32699882681844       -6.34450164218002
Cu           3.45645018261002        2.35972594298935       -3.81396438142096
H            2.83458133918824        4.27620718954507       -2.69107317412243
H            4.40251676875453       -3.32861978098173        1.57448591241511
H           -2.32249790224651        5.58070111142740       -4.13513544066765
H            2.75822124024697       -2.16072708342806       -3.61469453574975
H           -0.60340401387474        1.10596803139633       -2.15297214936697
H           -2.44446895951098        3.28694951356848       -5.01209842244590
H            0.56682084168476       -2.93685696858941       -2.85554745732533
H            5.59288385979869       -2.68150256290684        0.41651924960430
H           -2.67110704009369        1.02589806286616       -4.39711265916315
H            6.49259831727950       -0.53735764443370        0.56825901116884
H            7.00101970007961        1.66889446560218       -0.34356774215903
H            2.31269011703799        0.19084610709314       -0.00497061614424
H           -1.08530001825611       -1.30306403136820       -1.97541075017330
H            3.09833527945410        6.63215140245895       -2.03657116148419
H            4.07979703276811       -1.82149449026922       -2.04331018207806
H            5.55051156975234       -2.06880743932011        2.09462628170768
H           -0.95010825450650        7.39179292263257       -3.18723546188150
H            2.82778319828369        2.42468503986228       -0.91620339021747
H            7.95905647062016        4.54808500805011       -4.10845767102749
H            7.88218334952384        2.25719164489309       -3.26278565805146
H            1.18178329553760        8.19434802957588       -2.25265371416081
H            6.19768468093423        5.38330087081249       -5.62443843121278
H           -2.84329449456380       -1.10755685452640       -5.59832289220322
H            1.37158064354162        1.43907436669873       -5.71048933559086
H            6.20125470399522       -2.98962156356398       -1.81522187455744
H            4.39605375143548        3.86610489309047       -6.35548245546259
H            4.46542199693176        1.48616733280333       -5.70229855977833
H            8.15315198203784        0.13793962818642       -3.94506040071015
H            8.26801100296888       -2.04395987798035       -2.81373853091363
H           -0.89906536133770       -1.99853873794758       -6.83226525741116
H            1.20791518582425       -0.70947966026287       -6.88616238745205
N            1.58667885843457        2.20560784977459       -3.13433438042827
N            3.65285724506984        0.39332207546098       -3.51226991128182
O            3.95529465779862       -1.50507719887179        0.89208629334088

          :  Hamiltonian                  GFN2-xTB          :
         :: total energy            -121.762526914289 Eh    ::
         :: gradient norm              0.000210804628 Eh/a0 ::
         :: HOMO-LUMO gap              1.323530591734 eV    ::
         :: SCC energy              -123.822363857619 Eh    ::
         :: -> dispersion             -0.135952594257 Eh    ::
         :: repulsion energy           2.054035529512 Eh    ::

    * Orbital Energies and Occupations

         #    Occupation            Energy/Eh            Energy/eV
      -------------------------------------------------------------
         1        2.0000           -0.7463514             -20.3093
       ...           ...                  ...                  ...
       103        2.0000           -0.2828422              -7.6965
       104        2.0000           -0.2811746              -7.6511
       105        2.0000           -0.2763858              -7.5208
       106        2.0000           -0.2753647              -7.4931
       107        2.0000           -0.2621400              -7.1332
       108        2.0000           -0.2525521              -6.8723
       109        2.0000           -0.2433717              -6.6225
       110        2.0000           -0.2408952              -6.5551
       111        2.0000           -0.2332146              -6.3461
       112        2.0000           -0.2299560              -6.2574
       113        2.0000           -0.2208140              -6.0087
       114        2.0000           -0.2108278              -5.7369
       115        2.0000           -0.1990051              -5.4152 (HOMO)
       116                         -0.1503662              -4.0917 (LUMO)
       117                         -0.1445286              -3.9328
       118                         -0.1435308              -3.9057
       119                         -0.1391495              -3.7864
       120                         -0.1323654              -3.6018
       121                         -0.1262067              -3.4343
       122                         -0.1168259              -3.1790
       123                         -0.1127818              -3.0689
       124                         -0.1009612              -2.7473
       125                         -0.0993737              -2.7041
       126                         -0.0875302              -2.3818
       ...                                ...                  ...
       225                          0.8239900              22.4219
      -------------------------------------------------------------
                  HL-Gap            0.0486389 Eh            1.3235 eV

     #   Z          covCN         q      C6AA      α(0)
     1  35 Br       1.089    -0.173   189.858    22.217
     2   6 C        2.988    -0.016    28.408     8.743
     3   6 C        2.914    -0.074    29.841     8.958
     4   6 C        2.921    -0.066    29.636     8.927
     5   6 C        2.957     0.054    26.777     8.487
     6   6 C        2.920    -0.040    29.005     8.832
     7   6 C        2.923    -0.062    29.534     8.912
     8   6 C        2.913     0.078    26.252     8.402
     9   6 C        2.917    -0.054    29.343     8.883
    10   6 C        2.922    -0.033    28.822     8.804
    11   6 C        2.986     0.003    27.941     8.671
    12   6 C        2.942     0.056    26.754     8.483
    13   6 C        2.971    -0.041    29.018     8.836
    14   6 C        2.916    -0.054    29.338     8.882
    15   6 C        3.645     0.042    20.197     6.459
    16   6 C        2.921    -0.063    29.572     8.918
    17   6 C        2.867     0.148    24.792     8.162
    18   6 C        2.915    -0.045    29.112     8.848
    19   6 C        2.920    -0.047    29.163     8.856
    20   6 C        3.001    -0.035    28.846     8.810
    21   6 C        2.925    -0.045    29.106     8.847
    22   6 C        2.920     0.071    26.414     8.428
    23   6 C        2.995    -0.028    28.701     8.788
    24   6 C        2.925    -0.037    28.916     8.818
    25   6 C        2.977     0.021    27.526     8.606
    26   6 C        2.916    -0.040    28.982     8.828
    27   6 C        2.904     0.082    26.180     8.390
    28   6 C        2.919    -0.072    29.789     8.950
    29   6 C        2.916    -0.035    28.873     8.811
    30   6 C        2.921    -0.035    28.879     8.813
    31   6 C        2.913    -0.037    28.927     8.819
    32   6 C        3.001     0.020    27.559     8.612
    33   6 C        2.978    -0.040    28.984     8.831
    34   6 C        2.918    -0.034    28.857     8.809
    35   6 C        2.917    -0.041    29.021     8.834
    36   6 C        2.927    -0.028    28.710     8.787
    37   6 C        2.944    -0.032    28.788     8.800
    38   6 C        3.710    -0.046    21.545     6.633
    39   6 C        2.926    -0.043    29.073     8.842
    40   6 C        2.914    -0.067    29.680     8.933
    41   6 C        2.920    -0.039    28.979     8.828
    42   6 C        2.918    -0.031    28.768     8.796
    43  29 Cu       2.454     0.204   146.085    27.522
    44   1 H        0.926     0.043     2.406     2.426
    45   1 H        0.925     0.055     2.261     2.352
    46   1 H        0.925    -0.006     3.156     2.778
    47   1 H        0.925     0.005     2.965     2.693
    48   1 H        0.925     0.003     3.000     2.709
    49   1 H        0.925     0.001     3.038     2.726
    50   1 H        0.925    -0.009     3.223     2.807
    51   1 H        0.924     0.048     2.340     2.392
    52   1 H        0.925     0.017     2.775     2.605
    53   1 H        0.926     0.036     2.499     2.472
    54   1 H        0.926     0.045     2.379     2.412
    55   1 H        0.926     0.061     2.191     2.315
    56   1 H        0.925    -0.009     3.214     2.804
    57   1 H        0.926     0.016     2.801     2.617
    58   1 H        0.926     0.014     2.819     2.625
    59   1 H        0.924     0.030     2.593     2.518
    60   1 H        0.925     0.004     2.982     2.700
    61   1 H        0.926     0.075     2.036     2.232
    62   1 H        0.926     0.017     2.782     2.608
    63   1 H        0.925     0.021     2.718     2.578
    64   1 H        0.925     0.002     3.016     2.716
    65   1 H        0.926     0.015     2.815     2.624
    66   1 H        0.925     0.007     2.938     2.681
    67   1 H        0.925     0.020     2.731     2.584
    68   1 H        0.925    -0.014     3.314     2.847
    69   1 H        0.925     0.016     2.787     2.611
    70   1 H        0.925     0.057     2.230     2.335
    71   1 H        0.925     0.001     3.039     2.726
    72   1 H        0.925    -0.011     3.262     2.824
    73   1 H        0.925     0.007     2.939     2.681
    74   1 H        0.925     0.013     2.850     2.640
    75   7 N        2.590    -0.267    26.938     7.708
    76   7 N        2.588    -0.292    27.538     7.794
    77   8 O        1.706    -0.267    18.426     5.796

Wiberg/Mayer (AO) data.
largest (>0.10) Wiberg bond orders for each atom

     #   Z sym  total        # sym  WBO       # sym  WBO       # sym  WBO
 ---------------------------------------------------------------------------
     1  35 Br   1.113 --    22 C    0.963
     2   6 C    3.983 --    10 C    1.332    11 C    1.252     8 C    1.160
     3   6 C    3.957 --     6 C    1.500    11 C    1.272    46 H    0.969
     4   6 C    3.980 --     9 C    1.432    12 C    1.358    47 H    0.965
     5   6 C    3.966 --     7 C    1.369    12 C    1.235    75 N    1.142
     6   6 C    3.988 --     3 C    1.500    13 C    1.347    49 H    0.967
     7   6 C    3.981 --    14 C    1.431     5 C    1.369    48 H    0.968
     8   6 C    3.975 --    13 C    1.285    75 N    1.275     2 C    1.160
     9   6 C    3.975 --     4 C    1.432    14 C    1.415    50 H    0.971
    10   6 C    3.985 --    18 C    1.514     2 C    1.332    44 H    0.912
                            19 C    0.108
    11   6 C    3.986 --    19 C    1.285     3 C    1.272     2 C    1.252
    12   6 C    3.967 --     4 C    1.358     5 C    1.235    76 N    1.161
    13   6 C    3.974 --     6 C    1.347     8 C    1.285    25 C    1.059
    14   6 C    3.973 --     7 C    1.431     9 C    1.415    56 H    0.972
    15   6 C    3.949 --    77 O    0.987    45 H    0.981    59 H    0.977
                            51 H    0.972
    16   6 C    3.987 --    20 C    1.432    17 C    1.373    53 H    0.965
    17   6 C    3.936 --    16 C    1.373    21 C    1.348    77 O    1.061
    18   6 C    3.984 --    10 C    1.514    26 C    1.339    57 H    0.971
    19   6 C    3.982 --    26 C    1.537    11 C    1.285    60 H    0.970
                            10 C    0.108
    20   6 C    3.990 --    16 C    1.432    22 C    1.423    54 H    0.969
                            21 C    0.107
    21   6 C    3.988 --    23 C    1.466    17 C    1.348    55 H    0.965
                            20 C    0.107
    22   6 C    3.934 --    20 C    1.423    23 C    1.392     1 Br   0.963
    23   6 C    3.987 --    21 C    1.466    22 C    1.392    61 H    0.956
    24   6 C    3.987 --    34 C    1.451    25 C    1.381    52 H    0.969
                            42 C    0.102
    25   6 C    3.985 --    24 C    1.381    36 C    1.370    13 C    1.059
                            41 C    0.103
    26   6 C    3.984 --    19 C    1.537    18 C    1.339    64 H    0.972
    27   6 C    3.977 --    76 N    1.313    28 C    1.257    33 C    1.213
    28   6 C    3.981 --    35 C    1.512    27 C    1.257    58 H    0.961
    29   6 C    3.985 --    30 C    1.439    31 C    1.409    62 H    0.972
    30   6 C    3.986 --    29 C    1.439    32 C    1.390    63 H    0.967
    31   6 C    3.981 --    37 C    1.455    29 C    1.409    65 H    0.971
    32   6 C    3.981 --    30 C    1.390    38 C    1.233    33 C    1.091
    33   6 C    3.970 --    39 C    1.404    27 C    1.213    32 C    1.091
    34   6 C    3.991 --    24 C    1.451    41 C    1.434    66 H    0.972
                            36 C    0.106
    35   6 C    3.979 --    28 C    1.512    40 C    1.368    68 H    0.967
    36   6 C    3.989 --    42 C    1.463    25 C    1.370    67 H    0.966
                            34 C    0.106
    37   6 C    3.985 --    31 C    1.455    38 C    1.300    69 H    0.969
                            43 Cu   0.106
    38   6 C    3.991 --    37 C    1.300    32 C    1.233    70 H    0.918
                            43 Cu   0.342
    39   6 C    3.988 --    40 C    1.444    33 C    1.404    71 H    0.968
    40   6 C    3.961 --    39 C    1.444    35 C    1.368    72 H    0.972
    41   6 C    3.983 --    34 C    1.434    42 C    1.422    73 H    0.972
                            25 C    0.103
    42   6 C    3.992 --    36 C    1.463    41 C    1.422    74 H    0.971
                            24 C    0.102
    43  29 Cu   1.765 --    75 N    0.508    76 N    0.401    38 C    0.342
                            37 C    0.106
    44   1 H    0.998 --    10 C    0.912
    45   1 H    0.997 --    15 C    0.981
    46   1 H    0.999 --     3 C    0.969
    47   1 H    0.999 --     4 C    0.965
    48   1 H    0.999 --     7 C    0.968
    49   1 H    0.999 --     6 C    0.967
    50   1 H    0.999 --     9 C    0.971
    51   1 H    0.997 --    15 C    0.972
    52   1 H    1.000 --    24 C    0.969
    53   1 H    0.999 --    16 C    0.965
    54   1 H    0.998 --    20 C    0.969
    55   1 H    0.996 --    21 C    0.965
    56   1 H    0.999 --    14 C    0.972
    57   1 H    0.999 --    18 C    0.971
    58   1 H    0.999 --    28 C    0.961
    59   1 H    0.999 --    15 C    0.977
    60   1 H    0.999 --    19 C    0.970
    61   1 H    0.994 --    23 C    0.956
    62   1 H    0.999 --    29 C    0.972
    63   1 H    1.000 --    30 C    0.967
    64   1 H    0.999 --    26 C    0.972
    65   1 H    0.999 --    31 C    0.971
    66   1 H    0.999 --    34 C    0.972
    67   1 H    1.000 --    36 C    0.966
    68   1 H    0.999 --    35 C    0.967
    69   1 H    0.999 --    37 C    0.969
    70   1 H    0.997 --    38 C    0.918
    71   1 H    0.999 --    39 C    0.968
    72   1 H    0.999 --    40 C    0.972
    73   1 H    0.999 --    41 C    0.972
    74   1 H    0.999 --    42 C    0.971
    75   7 N    3.335 --     8 C    1.275     5 C    1.142    43 Cu   0.508
    76   7 N    3.320 --    27 C    1.313    12 C    1.161    43 Cu   0.401
    77   8 O    2.229 --    17 C    1.061    15 C    0.987
 ---------------------------------------------------------------------------

molecular dipole:
                 x           y           z       tot (Debye)
 q only:       -4.006      -2.751       6.603
   full:       -4.398      -4.040       6.492      22.421

           -------------------------------------------------
          | TOTAL ENERGY             -121.762526914289 Eh   |
          | GRADIENT NORM               0.000210804628 Eh/α |
          | HOMO-LUMO GAP               1.323530591734 eV   |
           -------------------------------------------------

 * finished run on 2024/03/10 at 13:20:15.859
