   * xtb version 6.5.1 (fef0646) compiled by 'conda@b96dff2e9fd6' on 2023-01-04
          program call               : xtb /scratch/negishi/li1724/Test-4-5-just-xtbrun/xtb_run/641656_1_init.xyz --iterations 300 --chrg -1 --uhf 0 --namespace 641656_1_opt --gfn 2 --opt --parallel 1 --input /scratch/negishi/li1724/Test-4-5-just-xtbrun/xtb_run/641656_1_opt.xcontrol

   ID    Z sym.   atoms
    1   35 Br     1
    2    6 C      2-42
    3   29 Cu     43
    4    1 H      44-74
    5    7 N      75, 76
    6    8 O      77
constraining bond 43 1 to    2.4940000 Å, actual value:    2.5074452 Å
constraining bond 43 22 to    2.0590000 Å, actual value:    1.9406998 Å
constraining bond 43 75 to    2.0020000 Å, actual value:    2.0583139 Å
constraining bond 43 76 to    2.0020000 Å, actual value:    1.9903549 Å

          :  Hamiltonian                  GFN2-xTB          :
 * total energy  :  -121.7388879 Eh     change       -0.2508727E-08 Eh
 * total energy  :  -121.7737037 Eh     change       -0.3481585E-01 Eh
 * total energy  :  -121.7766667 Eh     change       -0.2963025E-02 Eh
 * total energy  :  -121.7771302 Eh     change       -0.4635024E-03 Eh
 * total energy  :  -121.7773404 Eh     change       -0.2101414E-03 Eh
 * total energy  :  -121.7778417 Eh     change       -0.5012730E-03 Eh
 * total energy  :  -121.7780789 Eh     change       -0.2372002E-03 Eh
 * total energy  :  -121.7783813 Eh     change       -0.3024762E-03 Eh
 * total energy  :  -121.7785845 Eh     change       -0.2031955E-03 Eh
 * total energy  :  -121.7787803 Eh     change       -0.1957369E-03 Eh
 * total energy  :  -121.7842897 Eh     change       -0.4089843E-04 Eh
 * total energy  :  -121.7843090 Eh     change       -0.1922811E-04 Eh
 * total energy  :  -121.7843471 Eh     change       -0.3818717E-04 Eh
 * total energy  :  -121.7843582 Eh     change       -0.1103748E-04 Eh
 * total energy  :  -121.7843681 Eh     change       -0.9916258E-05 Eh
 * total energy  :  -121.7843763 Eh     change       -0.8173528E-05 Eh
 * total energy  :  -121.7843749 Eh     change        0.1413699E-05 Eh
 * total energy  :  -121.7843809 Eh     change       -0.5997432E-05 Eh
 * total energy  :  -121.7843846 Eh     change       -0.3724990E-05 Eh
   *** GEOMETRY OPTIMIZATION CONVERGED AFTER 72 ITERATIONS ***

 final structure:
================
77
 xtb: 6.5.1 (fef0646)
Br           5.12781322360080        0.19851704523082       -6.12723381653454
C           -0.07651344710774        3.02301244593981       -5.58737787639646
C            0.22855490919074        5.43884084484978       -5.45448540394760
C            0.51955803730225       -1.59160811075305       -2.84475702956831
C            0.68541696233112        0.68094804562034       -3.69586285564505
C            1.21895058073223        5.25735699732357       -4.53355240024896
C           -0.49076766520628        1.00049746099251       -3.00641922890719
C            0.99869355411255        2.84914505801238       -4.65635418817175
C           -0.62525162920077       -1.24311496258484       -2.15859495174243
C           -0.76261802550481        1.92632152217415       -6.14463452169777
C           -0.44167291268220        4.32798274962542       -6.00377529040695
C            1.18790443622942       -0.65125255570057       -3.63273464819984
C            1.62937919208365        3.97388802062417       -4.13303590571377
C           -1.12362006887015        0.05224986909058       -2.23118364915382
C            0.09127898265123        4.56608034337166      -10.63257347796907
C            1.13452021528305        2.55650411766009       -8.94785598383762
C            1.56291102889093        3.87294307704385       -8.89843900626982
C           -1.76383397456437        2.10786942289590       -7.05847841074535
C           -1.46588397237964        4.48310028579124       -6.95935219550228
C            1.60005432558722        1.64591274505146       -8.00831428172391
C            2.49966146376455        4.24838338160901       -7.94021654203136
C            2.48253709044364        2.02845963392343       -7.01407633336619
C            2.95419153755533        3.33329431125945       -7.01049313164581
C            2.61555976374235        4.60642293966902       -1.95122616588322
C            2.71097916363425        3.87886916288085       -3.13557330299170
C           -2.11650213730694        3.39799473131249       -7.47555964004845
C            3.05244019565859       -2.02771642030769       -4.23451728332241
C            3.44172051499875       -2.80453630053740       -5.33116761643541
C            2.50240172144474       -1.40980898965768        0.51965966918708
C            2.81565569887802       -2.16229276733610       -0.59625500670974
C            2.62141514873821       -0.03132252898370        0.48285010675386
C            3.25113676079855       -1.54798743548579       -1.76760586576613
C            3.55776459190884       -2.35841120237638       -2.95842652026635
C            3.63447352483999        4.57382244882791       -1.01667187112443
C            4.27533308989029       -3.89080915656933       -5.18125471797585
C            3.85507245738881        3.11931331539554       -3.35803884073772
C            3.07236837754506        0.58839895364745       -0.67045097920936
C            3.39287524756388       -0.16310015921746       -1.78396282513240
C            4.38600061224931       -3.46615875401194       -2.82972643665970
C            4.74442708811502       -4.23318380334959       -3.92279900009305
C            4.77238018789449        3.82091066194867       -1.25441115846980
C            4.87846108126434        3.09420267934285       -2.42908466425339
Cu           2.76486791855153        0.65903740856828       -5.51630544673187
H           -0.48928067736709        0.92694229774686       -5.83969517246846
H           -0.79288845101330        4.19800024198135      -10.10012877915993
H           -0.05362458002628        6.43236292591485       -5.77490706459087
H            0.88024080131137       -2.61092175743511       -2.81851728818928
H           -0.87170457719723        2.01213420938976       -3.05951260487088
H            1.73240524632154        6.11162579743475       -4.11212354011903
H           -1.14351315995397       -1.98883609432532       -1.57061084863111
H           -0.15352953969249        5.50028407106688      -11.13829115779712
H            1.72575545048818        5.19080304871916       -1.75796529638657
H            0.42925533284820        2.22032995793504       -9.69331775049292
H            1.24437424914291        0.62551877206717       -8.06416689437089
H            2.84771957230357        5.27022509894853       -7.92879762135427
H           -2.01533485637591        0.31976554277654       -1.67970065914583
H           -2.28216991677648        1.25381951729242       -7.47220193715119
H            3.07130831880790       -2.52661160819711       -6.30784192320009
H            0.39655071537391        3.82411209861622      -11.38026439921703
H           -1.72405886186139        5.48418422722511       -7.27954281611973
H            3.67371582526713        3.65952356210087       -6.27355985170191
H            2.15505051296504       -1.90035205754444        1.41953232887066
H            2.69890026115220       -3.23761685649684       -0.57194269997301
H           -2.90413326391216        3.52658768632164       -8.20718252590373
H            2.36311042163658        0.55946379370019        1.35101720405212
H            3.53981597621852        5.13776778832124       -0.09783960674859
H            3.94630970896548        2.55317520273138       -4.27146051943620
H            4.56325143597194       -4.47219536640374       -6.04581322127271
H            3.17152801788215        1.66309490481798       -0.70543512020265
H            3.75315744306422        0.32912145997112       -2.67503110369848
H            4.78050061746674       -3.70745897907727       -1.85102063379451
H            5.39938129039382       -5.08410865933753       -3.79613911085934
H            5.57000308497410        3.79621146073806       -0.52475159608254
H            5.76072162739757        2.50202929138555       -2.62437958951158
N            1.46597518162551        1.59178045057829       -4.32303833116312
N            2.21810460771623       -0.94944863802788       -4.47288967818663
O            1.13342898276701        4.87036723607201       -9.74587778591253

          :  Hamiltonian                  GFN2-xTB          :
         :: total energy            -121.784384582581 Eh    ::
         :: gradient norm              0.000247708525 Eh/a0 ::
         :: HOMO-LUMO gap              0.574993612728 eV    ::
         :: SCC energy              -123.857091893707 Eh    ::
         :: -> dispersion             -0.135575969851 Eh    ::
         :: repulsion energy           2.066167521631 Eh    ::

    * Orbital Energies and Occupations

         #    Occupation            Energy/Eh            Energy/eV
      -------------------------------------------------------------
         1        2.0000           -0.6737378             -18.3333
       ...           ...                  ...                  ...
       103        2.0000           -0.2918521              -7.9417
       104        2.0000           -0.2863492              -7.7920
       105        2.0000           -0.2810966              -7.6490
       106        2.0000           -0.2785963              -7.5810
       107        2.0000           -0.2719799              -7.4010
       108        2.0000           -0.2708129              -7.3692
       109        2.0000           -0.2622308              -7.1357
       110        2.0000           -0.2613521              -7.1118
       111        2.0000           -0.2522285              -6.8635
       112        2.0000           -0.2517879              -6.8515
       113        2.0000           -0.2445105              -6.6535
       114        2.0000           -0.2437204              -6.6320
       115        2.0000           -0.2219474              -6.0395 (HOMO)
       116        0.0000           -0.2008168              -5.4645 (LUMO)
       117                         -0.1663538              -4.5267
       118                         -0.1487912              -4.0488
       119                         -0.1445268              -3.9328
       120                         -0.1338639              -3.6426
       121                         -0.1301630              -3.5419
       122                         -0.1259062              -3.4261
       123                         -0.1239788              -3.3736
       124                         -0.1179484              -3.2095
       125                         -0.1117212              -3.0401
       126                         -0.1055945              -2.8734
       ...                                ...                  ...
       225                          0.8825008              24.0141
      -------------------------------------------------------------
                  HL-Gap            0.0211306 Eh            0.5750 eV

     #   Z          covCN         q      C6AA      α(0)
     1  35 Br       0.768    -0.495   198.698    22.726
     2   6 C        2.985    -0.003    28.092     8.694
     3   6 C        2.916    -0.048    29.192     8.860
     4   6 C        2.916    -0.062    29.534     8.912
     5   6 C        2.949     0.070    26.427     8.431
     6   6 C        2.921    -0.036    28.889     8.814
     7   6 C        2.916    -0.064    29.598     8.921
     8   6 C        2.918     0.088    26.032     8.367
     9   6 C        2.917    -0.051    29.256     8.870
    10   6 C        2.919    -0.021    28.539     8.760
    11   6 C        2.987     0.008    27.832     8.654
    12   6 C        2.944     0.066    26.528     8.447
    13   6 C        2.977    -0.011    28.288     8.724
    14   6 C        2.916    -0.050    29.239     8.867
    15   6 C        3.645     0.050    20.071     6.439
    16   6 C        2.917    -0.065    29.613     8.924
    17   6 C        2.867     0.133    25.080     8.209
    18   6 C        2.917    -0.036    28.900     8.815
    19   6 C        2.921    -0.037    28.929     8.820
    20   6 C        2.928    -0.024    28.597     8.770
    21   6 C        2.921    -0.054    29.329     8.881
    22   6 C        2.799    -0.062    29.517     8.900
    23   6 C        2.923    -0.017    28.440     8.745
    24   6 C        2.927    -0.036    28.893     8.815
    25   6 C        2.977     0.020    27.561     8.612
    26   6 C        2.916    -0.035    28.877     8.812
    27   6 C        2.918     0.096    25.861     8.339
    28   6 C        2.926    -0.033    28.826     8.805
    29   6 C        2.918    -0.034    28.837     8.806
    30   6 C        2.926    -0.035    28.881     8.813
    31   6 C        2.921    -0.035    28.866     8.811
    32   6 C        2.977     0.021    27.522     8.605
    33   6 C        2.976    -0.006    28.175     8.707
    34   6 C        2.918    -0.034    28.854     8.809
    35   6 C        2.917    -0.030    28.756     8.794
    36   6 C        2.925    -0.022    28.562     8.764
    37   6 C        2.919    -0.029    28.733     8.790
    38   6 C        2.925    -0.022    28.552     8.763
    39   6 C        2.925    -0.037    28.921     8.819
    40   6 C        2.917    -0.041    29.008     8.832
    41   6 C        2.920    -0.035    28.862     8.810
    42   6 C        2.919    -0.026    28.644     8.776
    43  29 Cu       3.142     0.226   145.728    27.488
    44   1 H        0.926     0.030     2.582     2.513
    45   1 H        0.924     0.034     2.537     2.491
    46   1 H        0.925     0.017     2.782     2.608
    47   1 H        0.925     0.004     2.985     2.702
    48   1 H        0.925    -0.001     3.074     2.742
    49   1 H        0.925     0.020     2.730     2.584
    50   1 H        0.925    -0.001     3.073     2.741
    51   1 H        0.925     0.045     2.381     2.413
    52   1 H        0.925     0.018     2.770     2.603
    53   1 H        0.926     0.017     2.784     2.609
    54   1 H        0.925     0.018     2.757     2.597
    55   1 H        0.926     0.032     2.557     2.501
    56   1 H        0.925    -0.001     3.079     2.744
    57   1 H        0.925     0.015     2.813     2.623
    58   1 H        0.926     0.034     2.536     2.490
    59   1 H        0.924     0.028     2.614     2.528
    60   1 H        0.925     0.017     2.782     2.608
    61   1 H        0.926     0.038     2.470     2.458
    62   1 H        0.925     0.012     2.860     2.644
    63   1 H        0.925     0.018     2.765     2.600
    64   1 H        0.925     0.009     2.909     2.667
    65   1 H        0.925     0.013     2.847     2.639
    66   1 H        0.925     0.012     2.858     2.644
    67   1 H        0.926     0.051     2.313     2.378
    68   1 H        0.926     0.018     2.757     2.596
    69   1 H        0.926     0.024     2.676     2.558
    70   1 H        0.926     0.042     2.426     2.436
    71   1 H        0.925     0.014     2.823     2.628
    72   1 H        0.925     0.011     2.873     2.651
    73   1 H        0.925     0.015     2.804     2.618
    74   1 H        0.926     0.035     2.517     2.481
    75   7 N        2.596    -0.265    26.872     7.699
    76   7 N        2.597    -0.236    26.187     7.600
    77   8 O        1.705    -0.291    18.829     5.859

Wiberg/Mayer (AO) data.
largest (>0.10) Wiberg bond orders for each atom

     #   Z sym  total        # sym  WBO       # sym  WBO       # sym  WBO
 ---------------------------------------------------------------------------
     1  35 Br   0.707 --    43 Cu   0.533
     2   6 C    3.984 --    10 C    1.299    11 C    1.257     8 C    1.199
     3   6 C    3.969 --     6 C    1.545    11 C    1.268    46 H    0.968
     4   6 C    3.969 --     9 C    1.458    12 C    1.326    47 H    0.968
     5   6 C    3.972 --     7 C    1.307    75 N    1.249    12 C    1.189
     6   6 C    3.990 --     3 C    1.545    13 C    1.304    49 H    0.969
     7   6 C    3.973 --    14 C    1.465     5 C    1.307    48 H    0.968
     8   6 C    3.978 --    13 C    1.396     2 C    1.199    75 N    1.128
     9   6 C    3.966 --     4 C    1.458    14 C    1.384    50 H    0.972
    10   6 C    3.988 --    18 C    1.540     2 C    1.299    44 H    0.963
                            19 C    0.116
    11   6 C    3.988 --    19 C    1.283     3 C    1.268     2 C    1.257
    12   6 C    3.974 --     4 C    1.326    76 N    1.229     5 C    1.189
    13   6 C    3.977 --     8 C    1.396     6 C    1.304    25 C    1.037
    14   6 C    3.970 --     7 C    1.465     9 C    1.384    56 H    0.971
    15   6 C    3.957 --    77 O    0.996    51 H    0.981    59 H    0.976
                            45 H    0.976
    16   6 C    3.974 --    20 C    1.409    17 C    1.393    53 H    0.965
                            23 C    0.105
    17   6 C    3.927 --    16 C    1.393    21 C    1.359    77 O    1.023
    18   6 C    3.989 --    10 C    1.540    26 C    1.329    57 H    0.972
    19   6 C    3.988 --    26 C    1.548    11 C    1.283    60 H    0.969
                            10 C    0.116
    20   6 C    3.987 --    22 C    1.429    16 C    1.409    54 H    0.964
                            21 C    0.110
    21   6 C    3.978 --    23 C    1.448    17 C    1.359    55 H    0.967
                            20 C    0.110
    22   6 C    3.888 --    20 C    1.429    23 C    1.404    43 Cu   0.678
    23   6 C    3.987 --    21 C    1.448    22 C    1.404    61 H    0.960
                            16 C    0.105
    24   6 C    3.986 --    34 C    1.448    25 C    1.392    52 H    0.970
                            42 C    0.108
    25   6 C    3.988 --    24 C    1.392    36 C    1.391    13 C    1.037
                            41 C    0.107
    26   6 C    3.988 --    19 C    1.548    18 C    1.329    64 H    0.971
    27   6 C    3.978 --    28 C    1.346    33 C    1.294    76 N    1.133
    28   6 C    3.984 --    35 C    1.467    27 C    1.346    58 H    0.967
    29   6 C    3.992 --    30 C    1.449    31 C    1.435    62 H    0.971
                            38 C    0.109
    30   6 C    3.989 --    29 C    1.449    32 C    1.389    63 H    0.970
                            37 C    0.107
    31   6 C    3.988 --    29 C    1.435    37 C    1.433    65 H    0.972
                            32 C    0.106
    32   6 C    3.988 --    30 C    1.389    38 C    1.388    33 C    1.041
                            31 C    0.106
    33   6 C    3.973 --    39 C    1.410    27 C    1.294    32 C    1.041
    34   6 C    3.991 --    24 C    1.448    41 C    1.434    66 H    0.972
                            36 C    0.109
    35   6 C    3.988 --    28 C    1.467    40 C    1.413    68 H    0.971
    36   6 C    3.987 --    42 C    1.450    25 C    1.391    67 H    0.951
                            34 C    0.109
    37   6 C    3.992 --    38 C    1.451    31 C    1.433    69 H    0.968
                            30 C    0.107
    38   6 C    3.990 --    37 C    1.451    32 C    1.388    70 H    0.962
                            29 C    0.109
    39   6 C    3.990 --    40 C    1.437    33 C    1.410    71 H    0.969
    40   6 C    3.959 --    39 C    1.437    35 C    1.413    72 H    0.972
    41   6 C    3.986 --    34 C    1.434    42 C    1.431    73 H    0.972
                            25 C    0.107
    42   6 C    3.991 --    36 C    1.450    41 C    1.431    74 H    0.970
                            24 C    0.108
    43  29 Cu   2.701 --    22 C    0.678    76 N    0.631     1 Br   0.533
                            75 N    0.496
    44   1 H    0.999 --    10 C    0.963
    45   1 H    0.999 --    15 C    0.976
    46   1 H    0.999 --     3 C    0.968
    47   1 H    0.999 --     4 C    0.968
    48   1 H    0.999 --     7 C    0.968
    49   1 H    0.998 --     6 C    0.969
    50   1 H    0.999 --     9 C    0.972
    51   1 H    0.997 --    15 C    0.981
    52   1 H    1.000 --    24 C    0.970
    53   1 H    0.997 --    16 C    0.965
    54   1 H    0.999 --    20 C    0.964
    55   1 H    0.997 --    21 C    0.967
    56   1 H    0.999 --    14 C    0.971
    57   1 H    0.999 --    18 C    0.972
    58   1 H    0.998 --    28 C    0.967
    59   1 H    0.999 --    15 C    0.976
    60   1 H    0.999 --    19 C    0.969
    61   1 H    0.997 --    23 C    0.960
    62   1 H    0.999 --    29 C    0.971
    63   1 H    1.000 --    30 C    0.970
    64   1 H    0.999 --    26 C    0.971
    65   1 H    0.999 --    31 C    0.972
    66   1 H    0.999 --    34 C    0.972
    67   1 H    0.997 --    36 C    0.951
    68   1 H    0.999 --    35 C    0.971
    69   1 H    0.999 --    37 C    0.968
    70   1 H    0.998 --    38 C    0.962
    71   1 H    0.999 --    39 C    0.969
    72   1 H    0.999 --    40 C    0.972
    73   1 H    0.999 --    41 C    0.972
    74   1 H    0.998 --    42 C    0.970
    75   7 N    3.292 --     5 C    1.249     8 C    1.128    43 Cu   0.496
    76   7 N    3.358 --    12 C    1.229    27 C    1.133    43 Cu   0.631
    77   8 O    2.188 --    17 C    1.023    15 C    0.996
 ---------------------------------------------------------------------------

molecular dipole:
                 x           y           z       tot (Debye)
 q only:       -5.296      -1.314       9.139
   full:       -7.023      -1.316       9.623      30.465

           -------------------------------------------------
          | TOTAL ENERGY             -121.784384582581 Eh   |
          | GRADIENT NORM               0.000247708525 Eh/α |
          | HOMO-LUMO GAP               0.574993612728 eV   |
           -------------------------------------------------

 * finished run on 2024/03/10 at 13:19:47.609
