                         Program Version 5.0.1 -  RELEASE  -
|  1> ! B97-3c def2-SVP CPCM(DMSO) defgrid2 OPT Freq
|  2>
|  3> %scf
|  4>   MaxIter 500
|  5> end
|  6>
|  7> %pal
|  8>   nproc 48
|  9> end
| 10>
| 11> %maxcore 4800
| 12>
| 13> %base "QJPJQTDYNZXKQF-UHFFFAOYSA-N-OPT"
| 14>
| 15> *xyz 0 1
| 16> Br  -2.40152628  -0.08294166   0.00008267 newgto "def2-TZVP" end
| 17> C    4.45972054  -0.68221602   0.00017409
| 18> C    1.64395941  -1.01397110  -0.00007776
| 19> C    2.26272927   0.23282167   0.00000681
| 20> C    0.26216039  -1.10365231  -0.00021888
| 21> C    1.47336240   1.38643343   0.00001531
| 22> C   -0.50009530   0.04819752  -0.00036492
| 23> C    0.09864548   1.29853937  -0.00016310
| 24> H    4.31651284  -1.29723554   0.89419371 newgto "STO-3G" end
| 25> H    4.31653607  -1.29750167  -0.89360275 newgto "STO-3G" end
| 26> H    2.22156221  -1.92437295  -0.00014911 newgto "STO-3G" end
| 27> H   -0.21485544  -2.07173567  -0.00036275 newgto "STO-3G" end
| 28> H    1.96607863   2.34535439   0.00006601 newgto "STO-3G" end
| 29> H    5.47057148  -0.27820090   0.00026335 newgto "STO-3G" end
| 30> H   -0.50640306   2.19187533  -0.00012456 newgto "STO-3G" end
| 31> O    3.60452635   0.43638827   0.00004104
| 32> *
| 33>
| 34>                          ****END OF INPUT****
 Total Charge           Charge          ....    0
 Multiplicity           Mult            ....    1
 Number of Electrons    NEL             ....   92
Dispersion correction           -0.040373408
FINAL SINGLE POINT ENERGY     -2920.721777204970
Dispersion correction            ... done
Dispersion correction           -0.040224224
FINAL SINGLE POINT ENERGY     -2920.723012028467
Dispersion correction            ... done
Dispersion correction           -0.040194006
FINAL SINGLE POINT ENERGY     -2920.723075960549
Dispersion correction            ... done
Dispersion correction           -0.040190977
FINAL SINGLE POINT ENERGY     -2920.723084417214
Dispersion correction            ... done
Dispersion correction           -0.040191719
FINAL SINGLE POINT ENERGY     -2920.723087242950
Dispersion correction            ... done
                    ***********************HURRAY********************

CARTESIAN COORDINATES (ANGSTROEM)
---------------------------------
  Br    -2.414612   -0.086268   -0.000305
  C      4.468430   -0.691337    0.000163
  C      1.652002   -1.017667   -0.000040
  C      2.272598    0.242593    0.000025
  C      0.257167   -1.113130   -0.000138
  C      1.475061    1.402863   -0.000007
  C     -0.514385    0.046178   -0.000170
  C      0.087217    1.308287   -0.000104
  H      4.317664   -1.305610    0.898975
  H      4.317795   -1.305581   -0.898691
  H      2.238436   -1.933410   -0.000018
  H     -0.215983   -2.093690   -0.000185
  H      1.958102    2.378930    0.000045
  H      5.488172   -0.293986    0.000240
  H     -0.520197    2.211885   -0.000128
  O      3.606017    0.437725    0.000116

 Multiplicity           Mult            ....    1
 Number of Electrons    NEL             ....   92
 Basis Dimension        Dim             ....  167

ORBITAL ENERGIES
----------------

  NO   OCC          E(Eh)            E(eV)
   0   2.0000    -480.857781    -13084.8054
   1   2.0000     -61.923124     -1685.0139
   2   2.0000     -55.877497     -1520.5040
   3   2.0000     -55.873191     -1520.3868
   4   2.0000     -55.873163     -1520.3861
   5   2.0000     -18.786072      -511.1950
   6   2.0000      -9.973069      -271.3810
   7   2.0000      -9.957543      -270.9585
   8   2.0000      -9.940266      -270.4884
   9   2.0000      -9.917942      -269.8809
  10   2.0000      -9.917534      -269.8698
  11   2.0000      -9.910423      -269.6763
  12   2.0000      -9.909138      -269.6413
  13   2.0000      -8.449112      -229.9120
  14   2.0000      -6.332869      -172.3261
  15   2.0000      -6.321416      -172.0145
  16   2.0000      -6.321109      -172.0061
  17   2.0000      -2.538229       -69.0687
  18   2.0000      -2.535764       -69.0017
  19   2.0000      -2.535559       -68.9961
  20   2.0000      -2.526640       -68.7534
  21   2.0000      -2.526635       -68.7532
  22   2.0000      -0.980080       -26.6693
  23   2.0000      -0.792413       -21.5627
  24   2.0000      -0.735154       -20.0046
  25   2.0000      -0.686543       -18.6818
  26   2.0000      -0.672062       -18.2877
  27   2.0000      -0.619528       -16.8582
  28   2.0000      -0.559879       -15.2351
  29   2.0000      -0.529616       -14.4116
  30   2.0000      -0.488991       -13.3061
  31   2.0000      -0.443882       -12.0786
  32   2.0000      -0.425525       -11.5791
  33   2.0000      -0.419810       -11.4236
  34   2.0000      -0.404788       -11.0148
  35   2.0000      -0.387806       -10.5527
  36   2.0000      -0.373638       -10.1672
  37   2.0000      -0.351723        -9.5709
  38   2.0000      -0.334798        -9.1103
  39   2.0000      -0.326832        -8.8936
  40   2.0000      -0.308278        -8.3887
  41   2.0000      -0.287365        -7.8196
  42   2.0000      -0.259480        -7.0608
  43   2.0000      -0.258295        -7.0286
  44   2.0000      -0.237719        -6.4687
  45   2.0000      -0.193737        -5.2719
  46   0.0000      -0.045279        -1.2321
  47   0.0000      -0.031058        -0.8451
  48   0.0000      -0.024519        -0.6672
  49   0.0000       0.090291         2.4569
  50   0.0000       0.105527         2.8715

MULLIKEN ATOMIC CHARGES
-----------------------
   0 Br:   -0.196081
   1 C :   -0.073059
   2 C :   -0.224807
   3 C :    0.275278
   4 C :   -0.145121
   5 C :   -0.180967
   6 C :    0.145818
   7 C :   -0.135576
   8 H :    0.121852
   9 H :    0.121852
  10 H :    0.122250
  11 H :    0.120347
  12 H :    0.119599
  13 H :    0.125301
  14 H :    0.120385
  15 O :   -0.317073
Sum of atomic charges:   -0.0000000

LOEWDIN ATOMIC CHARGES
----------------------
   0 Br:   -0.119824
   1 C :   -0.547165
   2 C :   -0.292557
   3 C :    0.009435
   4 C :   -0.237295
   5 C :   -0.266349
   6 C :   -0.048269
   7 C :   -0.239186
   8 H :    0.249354
   9 H :    0.249354
  10 H :    0.279911
  11 H :    0.278956
  12 H :    0.277997
  13 H :    0.254068
  14 H :    0.278937
  15 O :   -0.127366

  Mayer bond orders larger than 0.100000
B(  0-Br,  6-C ) :   0.9832 B(  1-C ,  8-H ) :   0.9688 B(  1-C ,  9-H ) :   0.9688
B(  1-C , 13-H ) :   0.9727 B(  1-C , 15-O ) :   0.9080 B(  2-C ,  3-C ) :   1.3569
B(  2-C ,  4-C ) :   1.3643 B(  2-C , 10-H ) :   0.9651 B(  3-C ,  5-C ) :   1.3735
B(  3-C , 15-O ) :   1.1448 B(  4-C ,  6-C ) :   1.4316 B(  4-C , 11-H ) :   0.9735
B(  5-C ,  7-C ) :   1.3979 B(  5-C , 12-H ) :   0.9733 B(  6-C ,  7-C ) :   1.3958
B(  7-C , 14-H ) :   0.9742

Dispersion correction           -0.040192216
FINAL SINGLE POINT ENERGY     -2920.723087668930

DIPOLE MOMENT
-------------
                                X             Y             Z
Electronic contribution:    -37.41597       0.78365      -0.00258
Nuclear contribution   :     38.95506      -1.39088       0.00269
                        -----------------------------------------
Total Dipole Moment    :      1.53909      -0.60723       0.00010
                        -----------------------------------------
Magnitude (a.u.)       :      1.65455
Magnitude (Debye)      :      4.20553

Dispersion correction in the Hessian             ... done   (      0.0 sec)

VIBRATIONAL FREQUENCIES
-----------------------

Scaling factor for frequencies =  1.000000000  (already applied!)

   0:         0.00 cm**-1
   1:         0.00 cm**-1
   2:         0.00 cm**-1
   3:         0.00 cm**-1
   4:         0.00 cm**-1
   5:         0.00 cm**-1
   6:        73.78 cm**-1
   7:       134.34 cm**-1
   8:       178.51 cm**-1
   9:       229.62 cm**-1
  10:       260.68 cm**-1
  11:       311.87 cm**-1
  12:       318.03 cm**-1
  13:       418.07 cm**-1
  14:       483.59 cm**-1
  15:       505.53 cm**-1
  16:       602.06 cm**-1
  17:       635.45 cm**-1
  18:       695.62 cm**-1
  19:       793.95 cm**-1
  20:       804.79 cm**-1
  21:       821.62 cm**-1
  22:       931.83 cm**-1
  23:       949.89 cm**-1
  24:       999.36 cm**-1
  25:      1049.62 cm**-1
  26:      1075.09 cm**-1
  27:      1119.69 cm**-1
  28:      1168.35 cm**-1
  29:      1179.65 cm**-1
  30:      1206.32 cm**-1
  31:      1298.55 cm**-1
  32:      1307.59 cm**-1
  33:      1358.11 cm**-1
  34:      1434.43 cm**-1
  35:      1468.39 cm**-1
  36:      1490.19 cm**-1
  37:      1500.05 cm**-1
  38:      1514.37 cm**-1
  39:      1604.49 cm**-1
  40:      1631.83 cm**-1
  41:      2989.36 cm**-1
  42:      3071.18 cm**-1
  43:      3117.97 cm**-1
  44:      3146.90 cm**-1
  45:      3150.48 cm**-1
  46:      3157.44 cm**-1
  47:      3170.48 cm**-1

IR SPECTRUM
-----------

 Mode   freq       eps      Int      T**2         TX        TY        TZ
       cm**-1   L/(mol*cm) km/mol    a.u.
----------------------------------------------------------------------------
  6:     73.78   0.000328    1.66  0.001388  ( 0.000021  0.000001 -0.037257)
  7:    134.34   0.001019    5.15  0.002367  ( 0.000010 -0.000003  0.048653)
  8:    178.51   0.000402    2.03  0.000703  (-0.024707 -0.009615 -0.000001)
  9:    229.62   0.000021    0.11  0.000028  (-0.000006  0.000001  0.005334)
 10:    260.68   0.000605    3.06  0.000724  (-0.026896  0.000803 -0.000002)
 11:    311.87   0.000259    1.31  0.000259  (-0.012998 -0.009497 -0.000002)
 12:    318.03   0.001016    5.13  0.000997  (-0.000003  0.000002  0.031574)
 13:    418.07   0.000001    0.00  0.000000  ( 0.000004  0.000023 -0.000700)
 14:    483.59   0.000121    0.61  0.000078  ( 0.004227  0.007778  0.000001)
 15:    505.53   0.005040   25.47  0.003111  ( 0.000012  0.000011 -0.055779)
 16:    602.06   0.012587   63.61  0.006524  ( 0.079429  0.014676  0.000006)
 17:    635.45   0.001052    5.31  0.000516  ( 0.022578  0.002582  0.000002)
 18:    695.62   0.000264    1.34  0.000119  (-0.000002  0.000006 -0.010891)
 19:    793.95   0.000932    4.71  0.000366  (-0.000002  0.000002  0.019141)
 20:    804.79   0.000568    2.87  0.000220  (-0.007693  0.012693  0.000002)
 21:    821.62   0.020494  103.57  0.007784  (-0.000019 -0.000006  0.088227)
 22:    931.83   0.000087    0.44  0.000029  ( 0.000000 -0.000005 -0.005388)
 23:    949.89   0.000026    0.13  0.000008  ( 0.000003  0.000011 -0.002902)
 24:    999.36   0.006633   33.52  0.002071  (-0.045384 -0.003414 -0.000002)
 25:   1049.62   0.013908   70.28  0.004135  (-0.048697  0.041995 -0.000002)
 26:   1075.09   0.004727   23.89  0.001372  (-0.033971 -0.014764 -0.000004)
 27:   1119.69   0.004489   22.69  0.001251  ( 0.001698  0.035330  0.000000)
 28:   1168.35   0.000012    0.06  0.000003  (-0.000002  0.000001 -0.001757)
 29:   1179.65   0.006089   30.77  0.001611  (-0.039608  0.006472 -0.000003)
 30:   1206.32   0.002291   11.58  0.000593  (-0.023257  0.007200 -0.000002)
 31:   1298.55   0.083468  421.81  0.020059  (-0.140987  0.013463 -0.000009)
 32:   1307.59   0.001464    7.40  0.000349  ( 0.017030  0.007699  0.000001)
 33:   1358.11   0.008421   42.55  0.001935  (-0.041777  0.013768 -0.000002)
 34:   1434.43   0.000124    0.63  0.000027  (-0.004836  0.001922 -0.000001)
 35:   1468.39   0.008942   45.19  0.001900  ( 0.041570  0.013126  0.000004)
 36:   1490.19   0.005759   29.10  0.001206  (-0.000000  0.000000  0.034726)
 37:   1500.05   0.020434  103.27  0.004251  ( 0.063981  0.012548  0.000004)
 38:   1514.37   0.051661  261.08  0.010646  (-0.103116  0.003588 -0.000008)
 39:   1604.49   0.004250   21.48  0.000827  (-0.025913 -0.012451 -0.000002)
 40:   1631.83   0.018888   95.45  0.003612  (-0.059859  0.005390 -0.000004)
 41:   2989.36   0.005858   29.60  0.000611  (-0.021580  0.012074 -0.000001)
 42:   3071.18   0.001269    6.41  0.000129  ( 0.000001  0.000000 -0.011356)
 43:   3117.97   0.001148    5.80  0.000115  ( 0.010676  0.000984  0.000001)
 44:   3146.90   0.000334    1.69  0.000033  ( 0.005756  0.000189  0.000000)
 45:   3150.48   0.000268    1.36  0.000027  ( 0.004198  0.002996  0.000000)
 46:   3157.44   0.000420    2.12  0.000042  (-0.003392 -0.005478 -0.000000)
 47:   3170.48   0.000532    2.69  0.000052  ( 0.006844 -0.002349  0.000000)

--------------------------
THERMOCHEMISTRY AT 298.15K
--------------------------

Temperature         ... 298.15 K
Pressure            ... 1.00 atm
Total Mass          ... 187.03 AMU

Throughout the following assumptions are being made:
  (1) The electronic state is orbitally nondegenerate
  (2) There are no thermally accessible electronically excited states
  (3) Hindered rotations indicated by low frequency modes are not
      treated as such but are treated as vibrations and this may
      cause some error
  (4) All equations used are the standard statistical mechanics
      equations for an ideal gas
  (5) All vibrations are strictly harmonic

freq.      73.78  E(vib)   ...       0.49
freq.     134.34  E(vib)   ...       0.42
freq.     178.51  E(vib)   ...       0.37
freq.     229.62  E(vib)   ...       0.32
freq.     260.68  E(vib)   ...       0.30
freq.     311.87  E(vib)   ...       0.25
freq.     318.03  E(vib)   ...       0.25
freq.     418.07  E(vib)   ...       0.18
freq.     483.59  E(vib)   ...       0.15
freq.     505.53  E(vib)   ...       0.14
freq.     602.06  E(vib)   ...       0.10
freq.     635.45  E(vib)   ...       0.09
freq.     695.62  E(vib)   ...       0.07
freq.     793.95  E(vib)   ...       0.05
freq.     804.79  E(vib)   ...       0.05
freq.     821.62  E(vib)   ...       0.05
freq.     931.83  E(vib)   ...       0.03
freq.     949.89  E(vib)   ...       0.03
freq.     999.36  E(vib)   ...       0.02
freq.    1049.62  E(vib)   ...       0.02
freq.    1075.09  E(vib)   ...       0.02
freq.    1119.69  E(vib)   ...       0.01
freq.    1168.35  E(vib)   ...       0.01
freq.    1179.65  E(vib)   ...       0.01
freq.    1206.32  E(vib)   ...       0.01
freq.    1298.55  E(vib)   ...       0.01
freq.    1307.59  E(vib)   ...       0.01
freq.    1358.11  E(vib)   ...       0.01
freq.    1434.43  E(vib)   ...       0.00
freq.    1468.39  E(vib)   ...       0.00
freq.    1490.19  E(vib)   ...       0.00
freq.    1500.05  E(vib)   ...       0.00
freq.    1514.37  E(vib)   ...       0.00
freq.    1604.49  E(vib)   ...       0.00
freq.    1631.83  E(vib)   ...       0.00
freq.    2989.36  E(vib)   ...       0.00
freq.    3071.18  E(vib)   ...       0.00
freq.    3117.97  E(vib)   ...       0.00
freq.    3146.90  E(vib)   ...       0.00
freq.    3150.48  E(vib)   ...       0.00
freq.    3157.44  E(vib)   ...       0.00
freq.    3170.48  E(vib)   ...       0.00

------------
INNER ENERGY
------------

The inner energy is: U= E(el) + E(ZPE) + E(vib) + E(rot) + E(trans)
    E(el)   - is the total energy from the electronic structure calculation
              = E(kin-el) + E(nuc-el) + E(el-el) + E(nuc-nuc)
    E(ZPE)  - the the zero temperature vibrational energy from the frequency calculation
    E(vib)  - the the finite temperature correction to E(ZPE) due to population
              of excited vibrational states
    E(rot)  - is the rotational thermal energy
    E(trans)- is the translational thermal energy

Summary of contributions to the inner energy U:
Electronic energy                ...  -2920.72308767 Eh
Zero point energy                ...      0.12156097 Eh      76.28 kcal/mol
Thermal vibrational correction   ...      0.00556427 Eh       3.49 kcal/mol
Thermal rotational correction    ...      0.00141627 Eh       0.89 kcal/mol
Thermal translational correction ...      0.00141627 Eh       0.89 kcal/mol
-----------------------------------------------------------------------
Total thermal energy                  -2920.59312989 Eh

Summary of corrections to the electronic energy:
(perhaps to be used in another calculation)
Total thermal correction                  0.00839681 Eh       5.27 kcal/mol
Non-thermal (ZPE) correction              0.12156097 Eh      76.28 kcal/mol
-----------------------------------------------------------------------
Total correction                          0.12995778 Eh      81.55 kcal/mol

--------
ENTHALPY
--------

The enthalpy is H = U + kB*T
                kB is Boltzmann's constant
Total free energy                 ...  -2920.59312989 Eh
Thermal Enthalpy correction       ...      0.00094421 Eh       0.59 kcal/mol
-----------------------------------------------------------------------
Total Enthalpy                    ...  -2920.59218568 Eh

Note: Rotational entropy computed according to Herzberg
Infrared and Raman Spectra, Chapter V,1, Van Nostrand Reinhold, 1945
Point Group:  Cs, Symmetry Number:   1
Rotational constants in cm-1:     0.159598     0.015085     0.013819

Vibrational entropy computed according to the QRRHO of S. Grimme
Chem.Eur.J. 2012 18 9955

-------
ENTROPY
-------

The entropy contributions are T*S = T*(S(el)+S(vib)+S(rot)+S(trans))
     S(el)   - electronic entropy
     S(vib)  - vibrational entropy
     S(rot)  - rotational entropy
     S(trans)- translational entropy
The entropies will be listed as multiplied by the temperature to get
units of energy

Electronic entropy                ...      0.00000000 Eh      0.00 kcal/mol
Vibrational entropy               ...      0.00929496 Eh      5.83 kcal/mol
Rotational entropy                ...      0.01437847 Eh      9.02 kcal/mol
Translational entropy             ...      0.01975798 Eh     12.40 kcal/mol
-----------------------------------------------------------------------
Final entropy term                ...      0.04343142 Eh     27.25 kcal/mol

In case the symmetry of your molecule has not been determined correctly
or in case you have a reason to use a different symmetry number we print
out the resulting rotational entropy values for sn=1,12 :
 --------------------------------------------------------
|  sn= 1 | S(rot)=       0.01437847 Eh      9.02 kcal/mol|
|  sn= 2 | S(rot)=       0.01372402 Eh      8.61 kcal/mol|
|  sn= 3 | S(rot)=       0.01334119 Eh      8.37 kcal/mol|
|  sn= 4 | S(rot)=       0.01306956 Eh      8.20 kcal/mol|
|  sn= 5 | S(rot)=       0.01285887 Eh      8.07 kcal/mol|
|  sn= 6 | S(rot)=       0.01268673 Eh      7.96 kcal/mol|
|  sn= 7 | S(rot)=       0.01254118 Eh      7.87 kcal/mol|
|  sn= 8 | S(rot)=       0.01241511 Eh      7.79 kcal/mol|
|  sn= 9 | S(rot)=       0.01230390 Eh      7.72 kcal/mol|
|  sn=10 | S(rot)=       0.01220442 Eh      7.66 kcal/mol|
|  sn=11 | S(rot)=       0.01211443 Eh      7.60 kcal/mol|
|  sn=12 | S(rot)=       0.01203227 Eh      7.55 kcal/mol|
 --------------------------------------------------------

-------------------
GIBBS FREE ENERGY
-------------------

The Gibbs free energy is G = H - T*S

Total enthalpy                    ...  -2920.59218568 Eh
Total entropy correction          ...     -0.04343142 Eh    -27.25 kcal/mol
-----------------------------------------------------------------------
Final Gibbs free energy         ...  -2920.63561710 Eh

                             ****ORCA TERMINATED NORMALLY****
TOTAL RUN TIME: 0 days 0 hours 1 minutes 38 seconds 573 msec
