                         Program Version 5.0.1 -  RELEASE  -
|  1> ! B97-3c def2-mTZVP CPCM(DMSO) defgrid2 NumFreq
|  2>
|  3> %scf
|  4>   MaxIter 500
|  5> end
|  6>
|  7> %pal
|  8>   nproc 48
|  9> end
| 10>
| 11> %maxcore 4800
| 12>
| 13> %base "QJPJQTDYNZXKQF-UHFFFAOYSA-N-FullTZ"
| 14>
| 15> *xyzfile 0 1 /scratch/negishi/li1724/Test-CentralizedCode-4-5/DFT/QJPJQTDYNZXKQF-UHFFFAOYSA-N/QJPJQTDYNZXKQF-UHFFFAOYSA-N-FullTZ.xyz
| 16>
| 17>                          ****END OF INPUT****

CARTESIAN COORDINATES (ANGSTROEM)
---------------------------------
  Br    -2.414612   -0.086268   -0.000305
  C      4.468430   -0.691337    0.000163
  C      1.652002   -1.017667   -0.000041
  C      2.272598    0.242593    0.000025
  C      0.257167   -1.113130   -0.000138
  C      1.475061    1.402863   -0.000007
  C     -0.514385    0.046178   -0.000170
  C      0.087217    1.308287   -0.000104
  H      4.317664   -1.305610    0.898975
  H      4.317795   -1.305581   -0.898691
  H      2.238436   -1.933410   -0.000018
  H     -0.215983   -2.093690   -0.000185
  H      1.958102    2.378930    0.000045
  H      5.488172   -0.293986    0.000240
  H     -0.520197    2.211885   -0.000128
  O      3.606017    0.437725    0.000116

 Total Charge           Charge          ....    0
 Multiplicity           Mult            ....    1
 Number of Electrons    NEL             ....   92
 Basis Dimension        Dim             ....  214

ORBITAL ENERGIES
----------------

  NO   OCC          E(Eh)            E(eV)
   0   2.0000    -480.863223    -13084.9535
   1   2.0000     -61.928341     -1685.1558
   2   2.0000     -55.882899     -1520.6510
   3   2.0000     -55.878586     -1520.5336
   4   2.0000     -55.878544     -1520.5325
   5   2.0000     -18.785458      -511.1783
   6   2.0000      -9.962967      -271.1061
   7   2.0000      -9.949744      -270.7463
   8   2.0000      -9.940702      -270.5003
   9   2.0000      -9.911106      -269.6949
  10   2.0000      -9.910895      -269.6892
  11   2.0000      -9.904355      -269.5112
  12   2.0000      -9.903425      -269.4859
  13   2.0000      -8.451925      -229.9886
  14   2.0000      -6.337272      -172.4459
  15   2.0000      -6.323412      -172.0688
  16   2.0000      -6.323120      -172.0608
  17   2.0000      -2.542276       -69.1789
  18   2.0000      -2.539186       -69.0948
  19   2.0000      -2.538956       -69.0885
  20   2.0000      -2.528422       -68.8019
  21   2.0000      -2.528416       -68.8017
  22   2.0000      -0.996438       -27.1144
  23   2.0000      -0.802074       -21.8255
  24   2.0000      -0.741130       -20.1672
  25   2.0000      -0.696304       -18.9474
  26   2.0000      -0.679663       -18.4946
  27   2.0000      -0.627702       -17.0806
  28   2.0000      -0.566729       -15.4215
  29   2.0000      -0.536224       -14.5914
  30   2.0000      -0.491424       -13.3723
  31   2.0000      -0.446313       -12.1448
  32   2.0000      -0.429578       -11.6894
  33   2.0000      -0.421001       -11.4560
  34   2.0000      -0.407805       -11.0969
  35   2.0000      -0.389762       -10.6060
  36   2.0000      -0.375374       -10.2144
  37   2.0000      -0.352569        -9.5939
  38   2.0000      -0.337473        -9.1831
  39   2.0000      -0.329077        -8.9546
  40   2.0000      -0.309544        -8.4231
  41   2.0000      -0.292862        -7.9692
  42   2.0000      -0.261159        -7.1065
  43   2.0000      -0.259066        -7.0495
  44   2.0000      -0.239159        -6.5079
  45   2.0000      -0.196353        -5.3430
  46   0.0000      -0.048723        -1.3258
  47   0.0000      -0.034705        -0.9444
  48   0.0000      -0.030883        -0.8404
  49   0.0000       0.045974         1.2510
  50   0.0000       0.050784         1.3819

MULLIKEN ATOMIC CHARGES
-----------------------
   0 Br:   -0.157296
   1 C :   -0.446944
   2 C :   -0.253434
   3 C :    0.166766
   4 C :   -0.150790
   5 C :   -0.201214
   6 C :   -0.035966
   7 C :   -0.165575
   8 H :    0.199370
   9 H :    0.199370
  10 H :    0.239093
  11 H :    0.214889
  12 H :    0.198620
  13 H :    0.209023
  14 H :    0.216910
  15 O :   -0.232822
Sum of atomic charges:    0.0000000

LOEWDIN ATOMIC CHARGES
----------------------
   0 Br:    0.164094
   1 C :   -0.053578
   2 C :   -0.153140
   3 C :    0.196610
   4 C :   -0.176249
   5 C :   -0.123461
   6 C :   -0.250426
   7 C :   -0.178133
   8 H :    0.182798
   9 H :    0.182798
  10 H :    0.194966
  11 H :    0.185136
  12 H :    0.192895
  13 H :    0.194396
  14 H :    0.185363
  15 O :   -0.744069

  Mayer bond orders larger than 0.100000
B(  0-Br,  6-C ) :   0.9975 B(  1-C ,  8-H ) :   0.9407 B(  1-C ,  9-H ) :   0.9407
B(  1-C , 13-H ) :   0.9507 B(  1-C , 15-O ) :   0.8407 B(  2-C ,  3-C ) :   1.3480
B(  2-C ,  4-C ) :   1.4490 B(  2-C , 10-H ) :   0.8673 B(  3-C ,  5-C ) :   1.4020
B(  3-C , 15-O ) :   1.1458 B(  4-C ,  6-C ) :   1.3493 B(  4-C , 11-H ) :   0.8937
B(  5-C ,  7-C ) :   1.5044 B(  5-C , 12-H ) :   0.9160 B(  6-C ,  7-C ) :   1.2949
B(  7-C , 14-H ) :   0.8923

Dispersion correction           -0.040192216
FINAL SINGLE POINT ENERGY     -2921.098635055168
Dispersion correction            ... done

DIPOLE MOMENT
-------------
                                X             Y             Z
Electronic contribution:    -37.52672       0.81677      -0.00259
Nuclear contribution   :     38.95506      -1.39088       0.00269
                        -----------------------------------------
Total Dipole Moment    :      1.42834      -0.57411       0.00009
                        -----------------------------------------
Magnitude (a.u.)       :      1.53940
Magnitude (Debye)      :      3.91285

VIBRATIONAL FREQUENCIES
-----------------------

Scaling factor for frequencies =  1.000000000 (already applied!)

   0:         0.00 cm**-1
   1:         0.00 cm**-1
   2:         0.00 cm**-1
   3:         0.00 cm**-1
   4:         0.00 cm**-1
   5:         0.00 cm**-1
   6:        86.61 cm**-1
   7:       140.35 cm**-1
   8:       178.15 cm**-1
   9:       262.75 cm**-1
  10:       302.07 cm**-1
  11:       319.35 cm**-1
  12:       374.63 cm**-1
  13:       429.22 cm**-1
  14:       485.77 cm**-1
  15:       510.68 cm**-1
  16:       607.71 cm**-1
  17:       636.64 cm**-1
  18:       638.32 cm**-1
  19:       799.78 cm**-1
  20:       824.41 cm**-1
  21:       831.25 cm**-1
  22:       923.83 cm**-1
  23:       933.28 cm**-1
  24:      1003.27 cm**-1
  25:      1037.70 cm**-1
  26:      1065.84 cm**-1
  27:      1126.86 cm**-1
  28:      1187.17 cm**-1
  29:      1192.34 cm**-1
  30:      1216.95 cm**-1
  31:      1267.93 cm**-1
  32:      1300.76 cm**-1
  33:      1324.72 cm**-1
  34:      1414.02 cm**-1
  35:      1477.43 cm**-1
  36:      1492.52 cm**-1
  37:      1499.66 cm**-1
  38:      1506.42 cm**-1
  39:      1557.57 cm**-1
  40:      1588.25 cm**-1
  41:      2909.81 cm**-1
  42:      2972.04 cm**-1
  43:      3025.68 cm**-1
  44:      3073.28 cm**-1
  45:      3077.55 cm**-1
  46:      3086.10 cm**-1
  47:      3100.16 cm**-1

IR SPECTRUM
-----------

 Mode   freq       eps      Int      T**2         TX        TY        TZ
       cm**-1   L/(mol*cm) km/mol    a.u.
----------------------------------------------------------------------------
  6:     86.61   0.000183    0.92  0.000659  ( 0.000003  0.000005  0.025674)
  7:    140.35   0.000987    4.99  0.002195  (-0.000003 -0.000003  0.046848)
  8:    178.15   0.000331    1.67  0.000580  ( 0.022419  0.008800 -0.000005)
  9:    262.75   0.000676    3.41  0.000803  ( 0.028269 -0.001845 -0.000002)
 10:    302.07   0.000493    2.49  0.000509  ( 0.000002  0.000002 -0.022561)
 11:    319.35   0.000205    1.03  0.000200  ( 0.008950  0.010945 -0.000000)
 12:    374.63   0.000182    0.92  0.000152  ( 0.000001  0.000002 -0.012317)
 13:    429.22   0.000011    0.06  0.000008  ( 0.000001  0.000001 -0.002835)
 14:    485.77   0.000253    1.28  0.000162  (-0.009091 -0.008927  0.000005)
 15:    510.68   0.004772   24.12  0.002916  (-0.000000  0.000003 -0.054001)
 16:    607.71   0.013103   66.22  0.006729  ( 0.080208  0.017180  0.000005)
 17:    636.64   0.000091    0.46  0.000045  (-0.000054 -0.000002  0.006674)
 18:    638.32   0.000882    4.46  0.000431  (-0.020762  0.000045 -0.000019)
 19:    799.78   0.000624    3.15  0.000244  ( 0.007295 -0.013798  0.000004)
 20:    824.41   0.001538    7.77  0.000582  ( 0.000002  0.000000 -0.024125)
 21:    831.25   0.024400  123.31  0.009160  (-0.000004 -0.000002  0.095709)
 22:    923.83   0.000008    0.04  0.000003  ( 0.000002  0.000002 -0.001594)
 23:    933.28   0.000004    0.02  0.000001  ( 0.000001  0.000004 -0.001165)
 24:   1003.27   0.006906   34.90  0.002148  ( 0.045488 -0.008881  0.000003)
 25:   1037.70   0.016273   82.24  0.004894  ( 0.053474 -0.045102  0.000003)
 26:   1065.84   0.004249   21.47  0.001244  ( 0.023289  0.026491  0.000003)
 27:   1126.86   0.004802   24.27  0.001330  ( 0.005580  0.036036 -0.000001)
 28:   1187.17   0.000099    0.50  0.000026  ( 0.000012  0.000001  0.005110)
 29:   1192.34   0.005305   26.81  0.001388  ( 0.037048 -0.003972  0.000001)
 30:   1216.95   0.005979   30.22  0.001533  ( 0.036089 -0.015192  0.000001)
 31:   1267.93   0.053426  270.00  0.013149  ( 0.114351 -0.008552  0.000008)
 32:   1300.76   0.062265  314.66  0.014938  ( 0.120318 -0.021483  0.000009)
 33:   1324.72   0.003068   15.50  0.000723  (-0.025490 -0.008540 -0.000002)
 34:   1414.02   0.000018    0.09  0.000004  (-0.000964  0.001713 -0.000001)
 35:   1477.43   0.020683  104.52  0.004369  (-0.065945 -0.004458 -0.000008)
 36:   1492.52   0.002263   11.44  0.000473  (-0.000016 -0.000002  0.021752)
 37:   1499.66   0.014671   74.14  0.003053  (-0.055249  0.000550 -0.000003)
 38:   1506.42   0.029390  148.53  0.006088  ( 0.078025  0.000674  0.000006)
 39:   1557.57   0.004047   20.45  0.000811  ( 0.025215  0.013229  0.000002)
 40:   1588.25   0.019727   99.69  0.003876  (-0.062098  0.004460 -0.000004)
 41:   2909.81   0.016828   85.04  0.001805  ( 0.031098 -0.028941  0.000001)
 42:   2972.04   0.012043   60.86  0.001265  (-0.000002  0.000001  0.035560)
 43:   3025.68   0.006236   31.52  0.000643  (-0.022628 -0.011453 -0.000000)
 44:   3073.28   0.001038    5.25  0.000105  (-0.010264 -0.000224 -0.000002)
 45:   3077.55   0.001355    6.85  0.000137  (-0.008361 -0.008218 -0.000001)
 46:   3086.10   0.002477   12.52  0.000250  ( 0.003936  0.015329  0.000001)
 47:   3100.16   0.001632    8.25  0.000164  (-0.009476  0.008628 -0.000000)

--------------------------
THERMOCHEMISTRY AT 298.15K
--------------------------

Temperature         ... 298.15 K
Pressure            ... 1.00 atm
Total Mass          ... 187.03 AMU

Throughout the following assumptions are being made:
  (1) The electronic state is orbitally nondegenerate
  (2) There are no thermally accessible electronically excited states
  (3) Hindered rotations indicated by low frequency modes are not
      treated as such but are treated as vibrations and this may
      cause some error
  (4) All equations used are the standard statistical mechanics
      equations for an ideal gas
  (5) All vibrations are strictly harmonic

freq.      86.61  E(vib)   ...       0.48
freq.     140.35  E(vib)   ...       0.41
freq.     178.15  E(vib)   ...       0.37
freq.     262.75  E(vib)   ...       0.29
freq.     302.07  E(vib)   ...       0.26
freq.     319.35  E(vib)   ...       0.25
freq.     374.63  E(vib)   ...       0.21
freq.     429.22  E(vib)   ...       0.18
freq.     485.77  E(vib)   ...       0.15
freq.     510.68  E(vib)   ...       0.14
freq.     607.71  E(vib)   ...       0.10
freq.     636.64  E(vib)   ...       0.09
freq.     638.32  E(vib)   ...       0.09
freq.     799.78  E(vib)   ...       0.05
freq.     824.41  E(vib)   ...       0.04
freq.     831.25  E(vib)   ...       0.04
freq.     923.83  E(vib)   ...       0.03
freq.     933.28  E(vib)   ...       0.03
freq.    1003.27  E(vib)   ...       0.02
freq.    1037.70  E(vib)   ...       0.02
freq.    1065.84  E(vib)   ...       0.02
freq.    1126.86  E(vib)   ...       0.01
freq.    1187.17  E(vib)   ...       0.01
freq.    1192.34  E(vib)   ...       0.01
freq.    1216.95  E(vib)   ...       0.01
freq.    1267.93  E(vib)   ...       0.01
freq.    1300.76  E(vib)   ...       0.01
freq.    1324.72  E(vib)   ...       0.01
freq.    1414.02  E(vib)   ...       0.00
freq.    1477.43  E(vib)   ...       0.00
freq.    1492.52  E(vib)   ...       0.00
freq.    1499.66  E(vib)   ...       0.00
freq.    1506.42  E(vib)   ...       0.00
freq.    1557.57  E(vib)   ...       0.00
freq.    1588.25  E(vib)   ...       0.00
freq.    2909.81  E(vib)   ...       0.00
freq.    2972.04  E(vib)   ...       0.00
freq.    3025.68  E(vib)   ...       0.00
freq.    3073.28  E(vib)   ...       0.00
freq.    3077.55  E(vib)   ...       0.00
freq.    3086.10  E(vib)   ...       0.00
freq.    3100.16  E(vib)   ...       0.00

------------
INNER ENERGY
------------

The inner energy is: U= E(el) + E(ZPE) + E(vib) + E(rot) + E(trans)
    E(el)   - is the total energy from the electronic structure calculation
              = E(kin-el) + E(nuc-el) + E(el-el) + E(nuc-nuc)
    E(ZPE)  - the the zero temperature vibrational energy from the frequency calculation
    E(vib)  - the the finite temperature correction to E(ZPE) due to population
              of excited vibrational states
    E(rot)  - is the rotational thermal energy
    E(trans)- is the translational thermal energy

Summary of contributions to the inner energy U:
Electronic energy                ...  -2921.09863506 Eh
Zero point energy                ...      0.12026168 Eh      75.47 kcal/mol
Thermal vibrational correction   ...      0.00535974 Eh       3.36 kcal/mol
Thermal rotational correction    ...      0.00141627 Eh       0.89 kcal/mol
Thermal translational correction ...      0.00141627 Eh       0.89 kcal/mol
-----------------------------------------------------------------------
Total thermal energy                  -2920.97018110 Eh

Summary of corrections to the electronic energy:
(perhaps to be used in another calculation)
Total thermal correction                  0.00819228 Eh       5.14 kcal/mol
Non-thermal (ZPE) correction              0.12026168 Eh      75.47 kcal/mol
-----------------------------------------------------------------------
Total correction                          0.12845396 Eh      80.61 kcal/mol

--------
ENTHALPY
--------

The enthalpy is H = U + kB*T
                kB is Boltzmann's constant
Total free energy                 ...  -2920.97018110 Eh
Thermal Enthalpy correction       ...      0.00094421 Eh       0.59 kcal/mol
-----------------------------------------------------------------------
Total Enthalpy                    ...  -2920.96923689 Eh

Note: Rotational entropy computed according to Herzberg
Infrared and Raman Spectra, Chapter V,1, Van Nostrand Reinhold, 1945
Point Group:  Cs, Symmetry Number:   1
Rotational constants in cm-1:     0.159598     0.015085     0.013819

Vibrational entropy computed according to the QRRHO of S. Grimme
Chem.Eur.J. 2012 18 9955

-------
ENTROPY
-------

The entropy contributions are T*S = T*(S(el)+S(vib)+S(rot)+S(trans))
     S(el)   - electronic entropy
     S(vib)  - vibrational entropy
     S(rot)  - rotational entropy
     S(trans)- translational entropy
The entropies will be listed as multiplied by the temperature to get
units of energy

Electronic entropy                ...      0.00000000 Eh      0.00 kcal/mol
Vibrational entropy               ...      0.00884411 Eh      5.55 kcal/mol
Rotational entropy                ...      0.01437847 Eh      9.02 kcal/mol
Translational entropy             ...      0.01975798 Eh     12.40 kcal/mol
-----------------------------------------------------------------------
Final entropy term                ...      0.04298056 Eh     26.97 kcal/mol

In case the symmetry of your molecule has not been determined correctly
or in case you have a reason to use a different symmetry number we print
out the resulting rotational entropy values for sn=1,12 :
 --------------------------------------------------------
|  sn= 1 | S(rot)=       0.01437847 Eh      9.02 kcal/mol|
|  sn= 2 | S(rot)=       0.01372402 Eh      8.61 kcal/mol|
|  sn= 3 | S(rot)=       0.01334119 Eh      8.37 kcal/mol|
|  sn= 4 | S(rot)=       0.01306956 Eh      8.20 kcal/mol|
|  sn= 5 | S(rot)=       0.01285887 Eh      8.07 kcal/mol|
|  sn= 6 | S(rot)=       0.01268673 Eh      7.96 kcal/mol|
|  sn= 7 | S(rot)=       0.01254118 Eh      7.87 kcal/mol|
|  sn= 8 | S(rot)=       0.01241511 Eh      7.79 kcal/mol|
|  sn= 9 | S(rot)=       0.01230390 Eh      7.72 kcal/mol|
|  sn=10 | S(rot)=       0.01220442 Eh      7.66 kcal/mol|
|  sn=11 | S(rot)=       0.01211443 Eh      7.60 kcal/mol|
|  sn=12 | S(rot)=       0.01203227 Eh      7.55 kcal/mol|
 --------------------------------------------------------

-------------------
GIBBS FREE ENERGY
-------------------

The Gibbs free energy is G = H - T*S

Total enthalpy                    ...  -2920.96923689 Eh
Total entropy correction          ...     -0.04298056 Eh    -26.97 kcal/mol
-----------------------------------------------------------------------
Final Gibbs free energy         ...  -2921.01221745 Eh

                             ****ORCA TERMINATED NORMALLY****
TOTAL RUN TIME: 0 days 0 hours 1 minutes 22 seconds 120 msec
